r 127.982920818 _2_ AGT  --- 0 cbr 532 [13a 2 1d 800] ------- [0:0 2:0 29 2] [0] 2 2
r 132.172182262 _2_ AGT  --- 1 cbr 532 [13a 2 1d 800] ------- [0:0 2:0 29 2] [1] 2 2
r 137.537630745 _2_ AGT  --- 2 cbr 532 [13a 2 1d 800] ------- [0:0 2:0 29 2] [2] 2 2
r 147.570727128 _2_ AGT  --- 4 cbr 532 [13a 2 21 800] ------- [0:0 2:0 29 2] [4] 2 2
r 152.356346980 _2_ AGT  --- 209 cbr 532 [13a 2 21 800] ------- [0:0 2:0 29 2] [5] 2 2
r 155.438135762 _2_ AGT  --- 471 cbr 532 [13a 2 21 800] ------- [0:0 2:0 29 2] [6] 2 2
r 158.031664788 _2_ AGT  --- 620 cbr 532 [13a 2 21 800] ------- [0:0 2:0 29 2] [7] 2 2
r 162.989395558 _2_ AGT  --- 955 cbr 532 [13a 2 2a 800] ------- [0:0 2:0 29 2] [8] 2 2
r 168.699526332 _2_ AGT  --- 1449 cbr 532 [13a 2 2a 800] ------- [0:0 2:0 29 2] [9] 2 2
r 172.690557172 _2_ AGT  --- 1785 cbr 532 [13a 2 2a 800] ------- [0:0 2:0 29 2] [10] 2 2
r 177.599074236 _2_ AGT  --- 2144 cbr 532 [13a 2 d 800] ------- [0:0 2:0 28 2] [11] 3 2
r 181.716007081 _2_ AGT  --- 2363 cbr 532 [13a 2 d 800] ------- [0:0 2:0 28 2] [12] 3 2
r 184.339578214 _2_ AGT  --- 2503 cbr 532 [13a 2 d 800] ------- [0:0 2:0 28 2] [13] 3 2
r 186.684759825 _2_ AGT  --- 2634 cbr 532 [13a 2 d 800] ------- [0:0 2:0 28 2] [14] 3 2
r 189.305531564 _2_ AGT  --- 2781 cbr 532 [13a 2 d 800] ------- [0:0 2:0 28 2] [15] 3 2
r 194.894376574 _2_ AGT  --- 3092 cbr 532 [13a 2 d 800] ------- [0:0 2:0 28 2] [16] 3 2
r 200.618535273 _2_ AGT  --- 3416 cbr 532 [13a 2 d 800] ------- [0:0 2:0 28 2] [17] 3 2
r 202.944453679 _2_ AGT  --- 3538 cbr 532 [13a 2 d 800] ------- [0:0 2:0 28 2] [18] 3 2
r 205.617724725 _2_ AGT  --- 3690 cbr 532 [13a 2 d 800] ------- [0:0 2:0 28 2] [19] 3 2
r 209.970667723 _2_ AGT  --- 3971 cbr 532 [13a 2 d 800] ------- [0:0 2:0 28 2] [20] 3 2
r 214.422713081 _2_ AGT  --- 4340 cbr 532 [13a 2 d 800] ------- [0:0 2:0 28 2] [21] 3 1
r 216.895358688 _2_ AGT  --- 4556 cbr 532 [13a 2 d 800] ------- [0:0 2:0 28 2] [22] 3 1
r 222.217679238 _2_ AGT  --- 5002 cbr 532 [13a 2 d 800] ------- [0:0 2:0 28 2] [23] 3 1
r 227.174050438 _2_ AGT  --- 5412 cbr 532 [13a 2 d 800] ------- [0:0 2:0 28 2] [24] 3 1
r 229.728026157 _2_ AGT  --- 5630 cbr 532 [13a 2 d 800] ------- [0:0 2:0 28 2] [25] 3 1
r 232.874889972 _2_ AGT  --- 5891 cbr 532 [13a 2 d 800] ------- [0:0 2:0 28 2] [26] 3 1
r 236.173386040 _2_ AGT  --- 6164 cbr 532 [13a 2 d 800] ------- [0:0 2:0 28 2] [27] 3 1
r 240.579271019 _2_ AGT  --- 6535 cbr 532 [13a 2 d 800] ------- [0:0 2:0 28 2] [28] 3 1
r 244.435704908 _2_ AGT  --- 6855 cbr 532 [13a 2 d 800] ------- [0:0 2:0 28 2] [29] 3 1
r 247.672823937 _2_ AGT  --- 7123 cbr 532 [13a 2 d 800] ------- [0:0 2:0 28 2] [30] 3 1
r 249.728827868 _2_ AGT  --- 7295 cbr 532 [13a 2 d 800] ------- [0:0 2:0 28 2] [31] 3 1
r 253.135461925 _2_ AGT  --- 7579 cbr 532 [13a 2 d 800] ------- [0:0 2:0 28 2] [32] 3 1
r 255.321475418 _2_ AGT  --- 7765 cbr 532 [13a 2 d 800] ------- [0:0 2:0 28 2] [33] 3 1
r 258.079456218 _2_ AGT  --- 7986 cbr 532 [13a 2 d 800] ------- [0:0 2:0 28 2] [34] 3 1
r 261.646369138 _2_ AGT  --- 8289 cbr 532 [13a 2 d 800] ------- [0:0 2:0 28 2] [35] 3 1
r 264.009983452 _2_ AGT  --- 8486 cbr 532 [13a 2 d 800] ------- [0:0 2:0 28 2] [36] 3 1
r 266.578340901 _2_ AGT  --- 8700 cbr 532 [13a 2 d 800] ------- [0:0 2:0 28 2] [37] 3 1
r 270.220665299 _2_ AGT  --- 9010 cbr 532 [13a 2 d 800] ------- [0:0 2:0 28 2] [38] 3 1
r 275.137979264 _2_ AGT  --- 9413 cbr 532 [13a 2 d 800] ------- [0:0 2:0 28 2] [39] 3 1
r 279.829955378 _2_ AGT  --- 9804 cbr 532 [13a 2 d 800] ------- [0:0 2:0 28 2] [40] 3 1
r 283.554064055 _2_ AGT  --- 10112 cbr 532 [13a 2 d 800] ------- [0:0 2:0 28 2] [41] 3 1
r 286.819952306 _2_ AGT  --- 10386 cbr 532 [13a 2 d 800] ------- [0:0 2:0 28 2] [42] 3 1
r 290.166206411 _2_ AGT  --- 10671 cbr 532 [13a 2 d 800] ------- [0:0 2:0 28 2] [43] 3 1
r 293.103865747 _2_ AGT  --- 10917 cbr 532 [13a 2 d 800] ------- [0:0 2:0 28 2] [44] 3 1
r 297.520512708 _2_ AGT  --- 11282 cbr 532 [13a 2 d 800] ------- [0:0 2:0 28 2] [45] 3 1
r 302.383320328 _2_ AGT  --- 11688 cbr 532 [13a 2 d 800] ------- [0:0 2:0 28 2] [46] 3 1
r 308.085497955 _2_ AGT  --- 12163 cbr 532 [13a 2 d 800] ------- [0:0 2:0 28 2] [47] 3 1
r 311.747980920 _2_ AGT  --- 12463 cbr 532 [13a 2 d 800] ------- [0:0 2:0 28 2] [48] 3 1
r 314.689608308 _2_ AGT  --- 12710 cbr 532 [13a 2 d 800] ------- [0:0 2:0 28 2] [49] 3 1
r 318.113477183 _2_ AGT  --- 12991 cbr 532 [13a 2 d 800] ------- [0:0 2:0 28 2] [50] 3 1
r 320.659636587 _2_ AGT  --- 13202 cbr 532 [13a 2 d 800] ------- [0:0 2:0 28 2] [51] 3 1
r 324.046593775 _2_ AGT  --- 13478 cbr 532 [13a 2 d 800] ------- [0:0 2:0 28 2] [52] 3 1
r 328.615574001 _2_ AGT  --- 13868 cbr 532 [13a 2 d 800] ------- [0:0 2:0 28 2] [53] 3 1
r 331.074142472 _2_ AGT  --- 14052 cbr 532 [13a 2 d 800] ------- [0:0 2:0 28 2] [54] 3 1
r 335.216401494 _2_ AGT  --- 14420 cbr 532 [13a 2 d 800] ------- [0:0 2:0 28 2] [55] 3 1
r 338.031723659 _2_ AGT  --- 14642 cbr 532 [13a 2 d 800] ------- [0:0 2:0 28 2] [56] 3 1
r 340.362324841 _2_ AGT  --- 14847 cbr 532 [13a 2 d 800] ------- [0:0 2:0 28 2] [57] 3 1
r 343.589114325 _2_ AGT  --- 15115 cbr 532 [13a 2 d 800] ------- [0:0 2:0 28 2] [58] 3 1
r 349.601856868 _2_ AGT  --- 15611 cbr 532 [13a 2 d 800] ------- [0:0 2:0 28 2] [59] 3 1
r 353.341753492 _2_ AGT  --- 15923 cbr 532 [13a 2 d 800] ------- [0:0 2:0 28 2] [60] 3 1
r 357.209079294 _2_ AGT  --- 16241 cbr 532 [13a 2 d 800] ------- [0:0 2:0 28 2] [61] 3 1
r 361.609630301 _2_ AGT  --- 16588 cbr 532 [13a 2 d 800] ------- [0:0 2:0 28 2] [62] 3 1
r 366.064583053 _2_ AGT  --- 16982 cbr 532 [13a 2 d 800] ------- [0:0 2:0 28 2] [63] 3 1
r 371.604577247 _2_ AGT  --- 17443 cbr 532 [13a 2 d 800] ------- [0:0 2:0 28 2] [64] 3 1
r 374.050635929 _2_ AGT  --- 17648 cbr 532 [13a 2 d 800] ------- [0:0 2:0 28 2] [65] 3 1
r 377.478047893 _2_ AGT  --- 17926 cbr 532 [13a 2 d 800] ------- [0:0 2:0 28 2] [66] 3 1
r 380.093420042 _2_ AGT  --- 18136 cbr 532 [13a 2 0 800] ------- [0:0 2:0 30 2] [67] 1 1
r 382.426337138 _2_ AGT  --- 18557 cbr 532 [13a 2 0 800] ------- [0:0 2:0 30 2] [68] 1 1
r 386.416142199 _2_ AGT  --- 19221 cbr 532 [13a 2 0 800] ------- [0:0 2:0 30 2] [69] 1 1
r 390.052137815 _2_ AGT  --- 19820 cbr 532 [13a 2 0 800] ------- [0:0 2:0 30 2] [70] 1 1
r 392.413251037 _2_ AGT  --- 20208 cbr 532 [13a 2 0 800] ------- [0:0 2:0 30 2] [71] 1 1
r 397.054330419 _2_ AGT  --- 20988 cbr 532 [13a 2 0 800] ------- [0:0 2:0 30 2] [72] 1 1
r 399.644955272 _2_ AGT  --- 21410 cbr 532 [13a 2 0 800] ------- [0:0 2:0 30 2] [73] 1 1
