r 150.061673588 _2_ AGT  --- 5 tcp 40 [13a 2 21 800] ------- [1:0 2:1 29 2] [0 0] 2 2
r 150.072654016 _1_ AGT  --- 6 ack 40 [13a 1 7 800] ------- [2:1 1:0 29 1] [0 0] 2 2
r 150.092865608 _2_ AGT  --- 7 tcp 1040 [13a 2 21 800] ------- [1:0 2:1 29 2] [1 0] 2 2
r 150.096898077 _1_ AGT  --- 9 ack 40 [13a 1 7 800] ------- [2:1 1:0 29 1] [1 0] 2 2
r 150.117129670 _2_ AGT  --- 8 tcp 1040 [13a 2 21 800] ------- [1:0 2:1 29 2] [2 0] 2 2
r 150.138837878 _2_ AGT  --- 10 tcp 1040 [13a 2 21 800] ------- [1:0 2:1 29 2] [3 0] 2 2
r 150.142750348 _1_ AGT  --- 12 ack 40 [13a 1 7 800] ------- [2:1 1:0 29 1] [2 0] 2 2
r 150.162601941 _2_ AGT  --- 11 tcp 1040 [13a 2 21 800] ------- [1:0 2:1 29 2] [4 0] 2 2
r 150.164808991 _1_ AGT  --- 13 ack 40 [13a 1 7 800] ------- [2:1 1:0 29 1] [3 0] 2 2
r 150.198529813 _1_ AGT  --- 16 ack 40 [13a 1 7 800] ------- [2:1 1:0 29 1] [4 0] 2 2
r 150.218381408 _2_ AGT  --- 14 tcp 1040 [13a 2 21 800] ------- [1:0 2:1 29 2] [5 0] 2 2
r 150.230174095 _2_ AGT  --- 15 tcp 1040 [13a 2 21 800] ------- [1:0 2:1 29 2] [6 0] 2 2
r 150.232101146 _1_ AGT  --- 21 ack 40 [13a 1 7 800] ------- [2:1 1:0 29 1] [5 0] 2 2
r 150.243935458 _2_ AGT  --- 17 tcp 1040 [13a 2 21 800] ------- [1:0 2:1 29 2] [7 0] 2 2
r 150.249734768 _1_ AGT  --- 22 ack 40 [13a 1 7 800] ------- [2:1 1:0 29 1] [6 0] 2 2
r 150.252367889 _1_ AGT  --- 25 ack 40 [13a 1 7 800] ------- [2:1 1:0 29 1] [7 0] 2 2
r 150.262274453 _2_ AGT  --- 18 tcp 1040 [13a 2 21 800] ------- [1:0 2:1 29 2] [8 0] 2 2
r 150.266466923 _1_ AGT  --- 30 ack 40 [13a 1 7 800] ------- [2:1 1:0 29 1] [8 0] 2 2
r 150.287118520 _2_ AGT  --- 19 tcp 1040 [13a 2 21 800] ------- [1:0 2:1 29 2] [9 0] 2 2
r 150.291170990 _1_ AGT  --- 33 ack 40 [13a 1 7 800] ------- [2:1 1:0 29 1] [9 0] 2 2
r 150.321308654 _2_ AGT  --- 20 tcp 1040 [13a 2 21 800] ------- [1:0 2:1 29 2] [10 0] 2 2
r 150.331235383 _2_ AGT  --- 23 tcp 1040 [13a 2 21 800] ------- [1:0 2:1 29 2] [11 0] 2 2
r 150.353223595 _2_ AGT  --- 24 tcp 1040 [13a 2 21 800] ------- [1:0 2:1 29 2] [12 0] 2 2
r 150.355090647 _1_ AGT  --- 36 ack 40 [13a 1 7 800] ------- [2:1 1:0 29 1] [10 0] 2 2
r 150.384768314 _2_ AGT  --- 26 tcp 1040 [13a 2 21 800] ------- [1:0 2:1 29 2] [13 0] 2 2
r 150.396740998 _2_ AGT  --- 27 tcp 1040 [13a 2 21 800] ------- [1:0 2:1 29 2] [14 0] 2 2
r 150.398808052 _1_ AGT  --- 37 ack 40 [13a 1 7 800] ------- [2:1 1:0 29 1] [11 0] 2 2
r 150.420536966 _2_ AGT  --- 28 tcp 1040 [13a 2 21 800] ------- [1:0 2:1 29 2] [15 0] 2 2
r 150.422444020 _1_ AGT  --- 38 ack 40 [13a 1 7 800] ------- [2:1 1:0 29 1] [12 0] 2 2
r 150.442155619 _2_ AGT  --- 29 tcp 1040 [13a 2 21 800] ------- [1:0 2:1 29 2] [16 0] 2 2
r 150.446388092 _1_ AGT  --- 41 ack 40 [13a 1 7 800] ------- [2:1 1:0 29 1] [13 0] 2 2
r 150.468257006 _2_ AGT  --- 31 tcp 1040 [13a 2 21 800] ------- [1:0 2:1 29 2] [17 0] 2 2
r 150.470204061 _1_ AGT  --- 42 ack 40 [13a 1 7 800] ------- [2:1 1:0 29 1] [14 0] 2 2
r 150.512194579 _2_ AGT  --- 32 tcp 1040 [13a 2 21 800] ------- [1:0 2:1 29 2] [18 0] 2 2
r 150.522341308 _2_ AGT  --- 34 tcp 1040 [13a 2 21 800] ------- [1:0 2:1 29 2] [19 0] 2 2
r 150.524248363 _1_ AGT  --- 45 ack 40 [13a 1 7 800] ------- [2:1 1:0 29 1] [15 0] 2 2
r 150.544139965 _2_ AGT  --- 35 tcp 1040 [13a 2 21 800] ------- [1:0 2:1 29 2] [20 0] 2 2
r 150.547932438 _1_ AGT  --- 48 ack 40 [13a 1 7 800] ------- [2:1 1:0 29 1] [16 0] 2 2
r 150.567704040 _2_ AGT  --- 39 tcp 1040 [13a 2 21 800] ------- [1:0 2:1 29 2] [21 0] 2 2
r 150.579936721 _2_ AGT  --- 40 tcp 1040 [13a 2 21 800] ------- [1:0 2:1 29 2] [22 0] 2 2
r 150.581863778 _1_ AGT  --- 51 ack 40 [13a 1 7 800] ------- [2:1 1:0 29 1] [17 0] 2 2
r 150.601995381 _2_ AGT  --- 43 tcp 1040 [13a 2 21 800] ------- [1:0 2:1 29 2] [23 0] 2 2
r 150.605967854 _1_ AGT  --- 54 ack 40 [13a 1 7 800] ------- [2:1 1:0 29 1] [18 0] 2 2
r 150.625979457 _2_ AGT  --- 44 tcp 1040 [13a 2 21 800] ------- [1:0 2:1 29 2] [24 0] 2 2
r 150.629911931 _1_ AGT  --- 55 ack 40 [13a 1 7 800] ------- [2:1 1:0 29 1] [19 0] 2 2
r 150.672052999 _2_ AGT  --- 46 tcp 1040 [13a 2 21 800] ------- [1:0 2:1 29 2] [25 0] 2 2
r 150.677732304 _1_ AGT  --- 58 ack 40 [13a 1 7 800] ------- [2:1 1:0 29 1] [20 0] 2 2
r 150.687598870 _2_ AGT  --- 47 tcp 1040 [13a 2 21 800] ------- [1:0 2:1 29 2] [26 0] 2 2
r 150.689645929 _1_ AGT  --- 61 ack 40 [13a 1 7 800] ------- [2:1 1:0 29 1] [21 0] 2 2
r 150.691473063 _1_ AGT  --- 62 ack 40 [13a 1 7 800] ------- [2:1 1:0 29 1] [22 0] 2 2
r 150.711464668 _2_ AGT  --- 49 tcp 1040 [13a 2 21 800] ------- [1:0 2:1 29 2] [27 0] 2 2
r 150.733432886 _2_ AGT  --- 50 tcp 1040 [13a 2 21 800] ------- [1:0 2:1 29 2] [28 0] 2 2
r 150.735459946 _1_ AGT  --- 65 ack 40 [13a 1 7 800] ------- [2:1 1:0 29 1] [23 0] 2 2
r 150.745426512 _2_ AGT  --- 52 tcp 1040 [13a 2 21 800] ------- [1:0 2:1 29 2] [29 0] 2 2
r 150.751285817 _1_ AGT  --- 68 ack 40 [13a 1 7 800] ------- [2:1 1:0 29 1] [24 0] 2 2
r 150.773184318 _1_ AGT  --- 70 ack 40 [13a 1 7 800] ------- [2:1 1:0 29 1] [25 0] 2 2
r 150.794813234 _2_ AGT  --- 53 tcp 1040 [13a 2 21 800] ------- [1:0 2:1 29 2] [30 0] 2 2
r 150.796680294 _1_ AGT  --- 72 ack 40 [13a 1 7 800] ------- [2:1 1:0 29 1] [26 0] 2 2
r 150.816491901 _2_ AGT  --- 56 tcp 1040 [13a 2 21 800] ------- [1:0 2:1 29 2] [31 0] 2 2
r 150.820624377 _1_ AGT  --- 75 ack 40 [13a 1 7 800] ------- [2:1 1:0 29 1] [27 0] 2 2
r 150.830470944 _2_ AGT  --- 57 tcp 1040 [13a 2 21 800] ------- [1:0 2:1 29 2] [32 0] 2 2
r 150.842523621 _2_ AGT  --- 59 tcp 1040 [13a 2 21 800] ------- [1:0 2:1 29 2] [33 0] 2 2
r 150.844410682 _1_ AGT  --- 76 ack 40 [13a 1 7 800] ------- [2:1 1:0 29 1] [28 0] 2 2
r 150.866779598 _2_ AGT  --- 60 tcp 1040 [13a 2 21 800] ------- [1:0 2:1 29 2] [34 0] 2 2
r 150.882344926 _1_ AGT  --- 78 ack 40 [13a 1 7 800] ------- [2:1 1:0 29 1] [29 0] 2 2
r 150.892165826 _1_ AGT  --- 81 ack 40 [13a 1 7 800] ------- [2:1 1:0 29 1] [30 0] 2 2
r 150.902072393 _2_ AGT  --- 63 tcp 1040 [13a 2 21 800] ------- [1:0 2:1 29 2] [35 0] 2 2
r 150.906064869 _1_ AGT  --- 83 ack 40 [13a 1 7 800] ------- [2:1 1:0 29 1] [31 0] 2 2
r 150.917977297 _1_ AGT  --- 85 ack 40 [13a 1 7 800] ------- [2:1 1:0 29 1] [32 0] 2 2
r 150.927983865 _2_ AGT  --- 64 tcp 1040 [13a 2 21 800] ------- [1:0 2:1 29 2] [36 0] 2 2
r 150.931936341 _1_ AGT  --- 86 ack 40 [13a 1 7 800] ------- [2:1 1:0 29 1] [33 0] 2 2
r 150.951667951 _2_ AGT  --- 66 tcp 1040 [13a 2 21 800] ------- [1:0 2:1 29 2] [37 0] 2 2
r 150.955660427 _1_ AGT  --- 88 ack 40 [13a 1 7 800] ------- [2:1 1:0 29 1] [34 0] 2 2
r 150.977538943 _1_ AGT  --- 91 ack 40 [13a 1 7 800] ------- [2:1 1:0 29 1] [35 0] 2 2
r 150.997270553 _2_ AGT  --- 67 tcp 1040 [13a 2 21 800] ------- [1:0 2:1 29 2] [38 0] 2 2
r 151.009083227 _2_ AGT  --- 69 tcp 1040 [13a 2 21 800] ------- [1:0 2:1 29 2] [39 0] 2 2
r 151.013055704 _1_ AGT  --- 94 ack 40 [13a 1 7 800] ------- [2:1 1:0 29 1] [36 0] 2 2
r 151.022922272 _2_ AGT  --- 71 tcp 1040 [13a 2 21 800] ------- [1:0 2:1 29 2] [40 0] 2 2
r 151.036911317 _1_ AGT  --- 96 ack 40 [13a 1 7 800] ------- [2:1 1:0 29 1] [37 0] 2 2
r 151.056922929 _2_ AGT  --- 73 tcp 1040 [13a 2 21 800] ------- [1:0 2:1 29 2] [41 0] 2 2
r 151.058849995 _1_ AGT  --- 99 ack 40 [13a 1 7 800] ------- [2:1 1:0 29 1] [38 0] 2 2
r 151.061017140 _1_ AGT  --- 100 ack 40 [13a 1 7 800] ------- [2:1 1:0 29 1] [39 0] 2 2
r 151.071650482 _2_ AGT  --- 74 tcp 1040 [13a 2 21 800] ------- [1:0 2:1 29 2] [42 0] 2 2
r 151.105951619 _2_ AGT  --- 77 tcp 1040 [13a 2 21 800] ------- [1:0 2:1 29 2] [43 0] 2 2
r 151.107838685 _1_ AGT  --- 102 ack 40 [13a 1 7 800] ------- [2:1 1:0 29 1] [40 0] 2 2
r 151.118591254 _2_ AGT  --- 79 tcp 1040 [13a 2 21 800] ------- [1:0 2:1 29 2] [44 0] 2 2
r 151.122423732 _1_ AGT  --- 104 ack 40 [13a 1 7 800] ------- [2:1 1:0 29 1] [41 0] 2 2
r 151.144302259 _1_ AGT  --- 107 ack 40 [13a 1 7 800] ------- [2:1 1:0 29 1] [42 0] 2 2
r 151.154188828 _2_ AGT  --- 80 tcp 1040 [13a 2 21 800] ------- [1:0 2:1 29 2] [45 0] 2 2
r 151.164195556 _2_ AGT  --- 82 tcp 1040 [13a 2 21 800] ------- [1:0 2:1 29 2] [46 0] 2 2
r 151.167968034 _1_ AGT  --- 108 ack 40 [13a 1 7 800] ------- [2:1 1:0 29 1] [43 0] 2 2
r 151.188139649 _2_ AGT  --- 84 tcp 1040 [13a 2 21 800] ------- [1:0 2:1 29 2] [47 0] 2 2
r 151.189986717 _1_ AGT  --- 110 ack 40 [13a 1 7 800] ------- [2:1 1:0 29 1] [44 0] 2 2
r 151.209778331 _2_ AGT  --- 87 tcp 1040 [13a 2 21 800] ------- [1:0 2:1 29 2] [48 0] 2 2
r 151.231566558 _2_ AGT  --- 89 tcp 1040 [13a 2 21 800] ------- [1:0 2:1 29 2] [49 0] 2 2
r 151.233613627 _1_ AGT  --- 113 ack 40 [13a 1 7 800] ------- [2:1 1:0 29 1] [45 0] 2 2
r 151.253645243 _2_ AGT  --- 90 tcp 1040 [13a 2 21 800] ------- [1:0 2:1 29 2] [50 0] 2 2
r 151.259484542 _1_ AGT  --- 114 ack 40 [13a 1 7 800] ------- [2:1 1:0 29 1] [46 0] 2 2
r 151.279556158 _2_ AGT  --- 92 tcp 1040 [13a 2 21 800] ------- [1:0 2:1 29 2] [51 0] 2 2
r 151.281483228 _1_ AGT  --- 116 ack 40 [13a 1 7 800] ------- [2:1 1:0 29 1] [47 0] 2 2
r 151.301394845 _2_ AGT  --- 93 tcp 1040 [13a 2 21 800] ------- [1:0 2:1 29 2] [52 0] 2 2
r 151.315183901 _1_ AGT  --- 118 ack 40 [13a 1 7 800] ------- [2:1 1:0 29 1] [48 0] 2 2
r 151.331942288 _2_ AGT  --- 95 tcp 1040 [13a 2 21 800] ------- [1:0 2:1 29 2] [53 0] 2 2
r 151.335974767 _1_ AGT  --- 119 ack 40 [13a 1 7 800] ------- [2:1 1:0 29 1] [49 0] 2 2
r 151.347947213 _1_ AGT  --- 121 ack 40 [13a 1 7 800] ------- [2:1 1:0 29 1] [50 0] 2 2
r 151.359859660 _1_ AGT  --- 123 ack 40 [13a 1 7 800] ------- [2:1 1:0 29 1] [51 0] 2 2
r 151.361766815 _1_ AGT  --- 125 ack 40 [13a 1 7 800] ------- [2:1 1:0 29 1] [52 0] 2 2
r 151.371633385 _2_ AGT  --- 97 tcp 1040 [13a 2 21 800] ------- [1:0 2:1 29 2] [54 0] 2 2
r 151.381580113 _2_ AGT  --- 98 tcp 1040 [13a 2 21 800] ------- [1:0 2:1 29 2] [55 0] 2 2
r 151.407151553 _1_ AGT  --- 127 ack 40 [13a 1 7 800] ------- [2:1 1:0 29 1] [53 0] 2 2
r 151.409098709 _1_ AGT  --- 132 ack 40 [13a 1 7 800] ------- [2:1 1:0 29 1] [54 0] 2 2
r 151.428810328 _2_ AGT  --- 101 tcp 1040 [13a 2 21 800] ------- [1:0 2:1 29 2] [56 0] 2 2
r 151.448947151 _2_ AGT  --- 103 tcp 1040 [13a 2 21 800] ------- [1:0 2:1 29 2] [57 0] 2 2
r 151.458773879 _2_ AGT  --- 105 tcp 1040 [13a 2 21 800] ------- [1:0 2:1 29 2] [58 0] 2 2
r 151.468600607 _2_ AGT  --- 106 tcp 1040 [13a 2 21 800] ------- [1:0 2:1 29 2] [59 0] 2 2
r 151.472413088 _1_ AGT  --- 133 ack 40 [13a 1 7 800] ------- [2:1 1:0 29 1] [55 0] 2 2
r 151.492204708 _2_ AGT  --- 109 tcp 1040 [13a 2 21 800] ------- [1:0 2:1 29 2] [60 0] 2 2
r 151.524159040 _2_ AGT  --- 111 tcp 1040 [13a 2 21 800] ------- [1:0 2:1 29 2] [61 0] 2 2
r 151.526106114 _1_ AGT  --- 136 ack 40 [13a 1 7 800] ------- [2:1 1:0 29 1] [56 0] 2 2
r 151.536332685 _2_ AGT  --- 112 tcp 1040 [13a 2 21 800] ------- [1:0 2:1 29 2] [62 0] 2 2
r 151.540185167 _1_ AGT  --- 137 ack 40 [13a 1 7 800] ------- [2:1 1:0 29 1] [57 0] 2 2
r 151.569842891 _2_ AGT  --- 115 tcp 1040 [13a 2 21 800] ------- [1:0 2:1 29 2] [63 0] 2 2
r 151.573735372 _1_ AGT  --- 138 ack 40 [13a 1 7 800] ------- [2:1 1:0 29 1] [58 0] 2 2
r 151.583701944 _2_ AGT  --- 117 tcp 1040 [13a 2 21 800] ------- [1:0 2:1 29 2] [64 0] 2 2
r 151.587934426 _1_ AGT  --- 139 ack 40 [13a 1 7 800] ------- [2:1 1:0 29 1] [59 0] 2 2
r 151.607786049 _2_ AGT  --- 120 tcp 1040 [13a 2 21 800] ------- [1:0 2:1 29 2] [65 0] 2 2
r 151.612338531 _1_ AGT  --- 141 ack 40 [13a 1 7 800] ------- [2:1 1:0 29 1] [60 0] 2 2
r 151.634027450 _2_ AGT  --- 122 tcp 1040 [13a 2 21 800] ------- [1:0 2:1 29 2] [66 0] 2 2
r 151.639866746 _1_ AGT  --- 142 ack 40 [13a 1 7 800] ------- [2:1 1:0 29 1] [61 0] 2 2
r 151.655762297 _1_ AGT  --- 144 ack 40 [13a 1 7 800] ------- [2:1 1:0 29 1] [62 0] 2 2
r 151.665908869 _2_ AGT  --- 124 tcp 1040 [13a 2 21 800] ------- [1:0 2:1 29 2] [67 0] 2 2
r 151.667955945 _1_ AGT  --- 146 ack 40 [13a 1 7 800] ------- [2:1 1:0 29 1] [63 0] 2 2
r 151.669783110 _1_ AGT  --- 148 ack 40 [13a 1 7 800] ------- [2:1 1:0 29 1] [64 0] 2 2
r 151.676569899 _1_ AGT  --- 150 ack 40 [13a 1 7 800] ------- [2:1 1:0 29 1] [65 0] 2 2
r 151.696461524 _2_ AGT  --- 126 tcp 1040 [13a 2 21 800] ------- [1:0 2:1 29 2] [68 0] 2 2
r 151.700374007 _1_ AGT  --- 152 ack 40 [13a 1 7 800] ------- [2:1 1:0 29 1] [66 0] 2 2
r 151.703367172 _1_ AGT  --- 155 ack 40 [13a 1 7 800] ------- [2:1 1:0 29 1] [67 0] 2 2
r 151.705314338 _1_ AGT  --- 159 ack 40 [13a 1 7 800] ------- [2:1 1:0 29 1] [68 0] 2 2
r 151.725965963 _2_ AGT  --- 128 tcp 1040 [13a 2 21 800] ------- [1:0 2:1 29 2] [69 0] 2 2
r 151.757800306 _2_ AGT  --- 129 tcp 1040 [13a 2 21 800] ------- [1:0 2:1 29 2] [70 0] 2 2
r 151.761532789 _1_ AGT  --- 163 ack 40 [13a 1 7 800] ------- [2:1 1:0 29 1] [69 0] 2 2
r 151.783331361 _1_ AGT  --- 164 ack 40 [13a 1 7 800] ------- [2:1 1:0 29 1] [70 0] 2 2
r 151.793177934 _2_ AGT  --- 130 tcp 1040 [13a 2 21 800] ------- [1:0 2:1 29 2] [71 0] 2 2
r 151.825819334 _2_ AGT  --- 131 tcp 1040 [13a 2 21 800] ------- [1:0 2:1 29 2] [72 0] 2 2
r 151.827746414 _1_ AGT  --- 167 ack 40 [13a 1 7 800] ------- [2:1 1:0 29 1] [71 0] 2 2
r 151.837912987 _2_ AGT  --- 134 tcp 1040 [13a 2 21 800] ------- [1:0 2:1 29 2] [73 0] 2 2
r 151.849965647 _2_ AGT  --- 135 tcp 1040 [13a 2 21 800] ------- [1:0 2:1 29 2] [74 0] 2 2
r 151.851952726 _1_ AGT  --- 168 ack 40 [13a 1 7 800] ------- [2:1 1:0 29 1] [72 0] 2 2
r 151.862019300 _2_ AGT  --- 140 tcp 1040 [13a 2 21 800] ------- [1:0 2:1 29 2] [75 0] 2 2
r 151.866051784 _1_ AGT  --- 170 ack 40 [13a 1 7 800] ------- [2:1 1:0 29 1] [73 0] 2 2
r 151.895689523 _2_ AGT  --- 143 tcp 1040 [13a 2 21 800] ------- [1:0 2:1 29 2] [76 0] 2 2
r 151.899582008 _1_ AGT  --- 171 ack 40 [13a 1 7 800] ------- [2:1 1:0 29 1] [74 0] 2 2
r 151.909528581 _2_ AGT  --- 145 tcp 1040 [13a 2 21 800] ------- [1:0 2:1 29 2] [77 0] 2 2
r 151.925664469 _1_ AGT  --- 173 ack 40 [13a 1 7 800] ------- [2:1 1:0 29 1] [75 0] 2 2
r 151.945636099 _2_ AGT  --- 147 tcp 1040 [13a 2 21 800] ------- [1:0 2:1 29 2] [78 0] 2 2
r 151.957508757 _2_ AGT  --- 149 tcp 1040 [13a 2 21 800] ------- [1:0 2:1 29 2] [79 0] 2 2
r 151.959355839 _1_ AGT  --- 175 ack 40 [13a 1 7 800] ------- [2:1 1:0 29 1] [76 0] 2 2
r 151.966302626 _1_ AGT  --- 177 ack 40 [13a 1 7 800] ------- [2:1 1:0 29 1] [77 0] 2 2
r 151.968189800 _1_ AGT  --- 179 ack 40 [13a 1 7 800] ------- [2:1 1:0 29 1] [78 0] 2 2
r 151.970336973 _1_ AGT  --- 180 ack 40 [13a 1 7 800] ------- [2:1 1:0 29 1] [79 0] 2 2
r 152.000354718 _2_ AGT  --- 151 tcp 1040 [13a 2 21 800] ------- [1:0 2:1 29 2] [80 0] 2 2
r 152.010441445 _2_ AGT  --- 153 tcp 1040 [13a 2 21 800] ------- [1:0 2:1 29 2] [81 0] 2 2
r 152.026197335 _1_ AGT  --- 185 ack 40 [13a 1 7 800] ------- [2:1 1:0 29 1] [80 0] 2 2
r 152.028024510 _1_ AGT  --- 186 ack 40 [13a 1 7 800] ------- [2:1 1:0 29 1] [81 0] 2 2
r 152.038031085 _2_ AGT  --- 154 tcp 1040 [13a 2 21 800] ------- [1:0 2:1 29 2] [82 0] 2 2
r 152.052040169 _1_ AGT  --- 189 ack 40 [13a 1 7 800] ------- [2:1 1:0 29 1] [82 0] 2 2
r 152.062006744 _2_ AGT  --- 156 tcp 1040 [13a 2 21 800] ------- [1:0 2:1 29 2] [83 0] 2 2
r 152.065999230 _1_ AGT  --- 191 ack 40 [13a 1 7 800] ------- [2:1 1:0 29 1] [83 0] 2 2
r 152.086110863 _2_ AGT  --- 157 tcp 1040 [13a 2 21 800] ------- [1:0 2:1 29 2] [84 0] 2 2
r 152.117585222 _2_ AGT  --- 158 tcp 1040 [13a 2 21 800] ------- [1:0 2:1 29 2] [85 0] 2 2
r 152.119652307 _1_ AGT  --- 193 ack 40 [13a 1 7 800] ------- [2:1 1:0 29 1] [84 0] 2 2
r 152.129758881 _2_ AGT  --- 160 tcp 1040 [13a 2 21 800] ------- [1:0 2:1 29 2] [86 0] 2 2
r 152.133811368 _1_ AGT  --- 194 ack 40 [13a 1 7 800] ------- [2:1 1:0 29 1] [85 0] 2 2
r 152.155720289 _2_ AGT  --- 161 tcp 1040 [13a 2 21 800] ------- [1:0 2:1 29 2] [87 0] 2 2
r 152.157567375 _1_ AGT  --- 196 ack 40 [13a 1 7 800] ------- [2:1 1:0 29 1] [86 0] 2 2
r 152.177439009 _2_ AGT  --- 162 tcp 1040 [13a 2 21 800] ------- [1:0 2:1 29 2] [88 0] 2 2
r 152.197675852 _2_ AGT  --- 165 tcp 1040 [13a 2 21 800] ------- [1:0 2:1 29 2] [89 0] 2 2
r 152.201568339 _1_ AGT  --- 198 ack 40 [13a 1 7 800] ------- [2:1 1:0 29 1] [87 0] 2 2
r 152.233583380 _2_ AGT  --- 166 tcp 1040 [13a 2 21 800] ------- [1:0 2:1 29 2] [90 0] 2 2
r 152.235570467 _1_ AGT  --- 200 ack 40 [13a 1 7 800] ------- [2:1 1:0 29 1] [88 0] 2 2
r 152.257479389 _2_ AGT  --- 169 tcp 1040 [13a 2 21 800] ------- [1:0 2:1 29 2] [91 0] 2 2
r 152.267306116 _2_ AGT  --- 172 tcp 1040 [13a 2 21 800] ------- [1:0 2:1 29 2] [92 0] 2 2
r 152.269193203 _1_ AGT  --- 201 ack 40 [13a 1 7 800] ------- [2:1 1:0 29 1] [89 0] 2 2
r 152.293108082 _1_ AGT  --- 203 ack 40 [13a 1 7 800] ------- [2:1 1:0 29 1] [90 0] 2 2
r 152.310763417 _2_ AGT  --- 174 tcp 1040 [13a 2 21 800] ------- [1:0 2:1 29 2] [93 0] 2 2
r 152.314515905 _1_ AGT  --- 205 ack 40 [13a 1 7 800] ------- [2:1 1:0 29 1] [91 0] 2 2
r 152.336544827 _2_ AGT  --- 176 tcp 1040 [13a 2 21 800] ------- [1:0 2:1 29 2] [94 0] 2 2
r 152.338431916 _1_ AGT  --- 206 ack 40 [13a 1 7 800] ------- [2:1 1:0 29 1] [92 0] 2 2
r 152.350444404 _1_ AGT  --- 210 ack 40 [13a 1 7 800] ------- [2:1 1:0 29 1] [93 0] 2 2
r 152.368319631 _2_ AGT  --- 178 tcp 1040 [13a 2 21 800] ------- [1:0 2:1 29 2] [95 0] 2 2
r 152.378306359 _2_ AGT  --- 181 tcp 1040 [13a 2 21 800] ------- [1:0 2:1 29 2] [96 0] 2 2
r 152.380353448 _1_ AGT  --- 212 ack 40 [13a 1 7 800] ------- [2:1 1:0 29 1] [94 0] 2 2
r 152.404278818 _1_ AGT  --- 215 ack 40 [13a 1 7 800] ------- [2:1 1:0 29 1] [95 0] 2 2
r 152.433916583 _2_ AGT  --- 182 tcp 1040 [13a 2 21 800] ------- [1:0 2:1 29 2] [97 0] 2 2
r 152.447885684 _1_ AGT  --- 216 ack 40 [13a 1 7 800] ------- [2:1 1:0 29 1] [96 0] 2 2
r 152.457772261 _2_ AGT  --- 183 tcp 1040 [13a 2 21 800] ------- [1:0 2:1 29 2] [98 0] 2 2
r 152.471811708 _2_ AGT  --- 184 tcp 1040 [13a 2 21 800] ------- [1:0 2:1 29 2] [99 0] 2 2
r 152.475504198 _1_ AGT  --- 219 ack 40 [13a 1 7 800] ------- [2:1 1:0 29 1] [97 0] 2 2
r 152.487416691 _1_ AGT  --- 221 ack 40 [13a 1 7 800] ------- [2:1 1:0 29 1] [98 0] 2 2
r 152.499169186 _1_ AGT  --- 222 ack 40 [13a 1 7 800] ------- [2:1 1:0 29 1] [99 0] 2 2
r 152.530454020 _2_ AGT  --- 187 tcp 1040 [13a 2 21 800] ------- [1:0 2:1 29 2] [100 0] 2 2
r 152.540480747 _2_ AGT  --- 188 tcp 1040 [13a 2 21 800] ------- [1:0 2:1 29 2] [101 0] 2 2
r 152.554220191 _2_ AGT  --- 190 tcp 1040 [13a 2 21 800] ------- [1:0 2:1 29 2] [102 0] 2 2
r 152.558292681 _1_ AGT  --- 226 ack 40 [13a 1 7 800] ------- [2:1 1:0 29 1] [100 0] 2 2
r 152.578064324 _2_ AGT  --- 192 tcp 1040 [13a 2 21 800] ------- [1:0 2:1 29 2] [103 0] 2 2
r 152.582096814 _1_ AGT  --- 227 ack 40 [13a 1 7 800] ------- [2:1 1:0 29 1] [101 0] 2 2
r 152.592043392 _2_ AGT  --- 195 tcp 1040 [13a 2 21 800] ------- [1:0 2:1 29 2] [104 0] 2 2
r 152.594190485 _1_ AGT  --- 228 ack 40 [13a 1 7 800] ------- [2:1 1:0 29 1] [102 0] 2 2
r 152.596077678 _1_ AGT  --- 230 ack 40 [13a 1 7 800] ------- [2:1 1:0 29 1] [103 0] 2 2
r 152.615849322 _2_ AGT  --- 197 tcp 1040 [13a 2 21 800] ------- [1:0 2:1 29 2] [105 0] 2 2
r 152.639504368 _2_ AGT  --- 199 tcp 1040 [13a 2 21 800] ------- [1:0 2:1 29 2] [106 0] 2 2
r 152.641531462 _1_ AGT  --- 232 ack 40 [13a 1 7 800] ------- [2:1 1:0 29 1] [104 0] 2 2
r 152.643398656 _1_ AGT  --- 235 ack 40 [13a 1 7 800] ------- [2:1 1:0 29 1] [105 0] 2 2
r 152.653325234 _2_ AGT  --- 202 tcp 1040 [13a 2 21 800] ------- [1:0 2:1 29 2] [107 0] 2 2
r 152.657177726 _1_ AGT  --- 236 ack 40 [13a 1 7 800] ------- [2:1 1:0 29 1] [106 0] 2 2
r 152.677049370 _2_ AGT  --- 204 tcp 1040 [13a 2 21 800] ------- [1:0 2:1 29 2] [108 0] 2 2
r 152.680961862 _1_ AGT  --- 239 ack 40 [13a 1 7 800] ------- [2:1 1:0 29 1] [107 0] 2 2
r 152.691874440 _2_ AGT  --- 207 tcp 1040 [13a 2 21 800] ------- [1:0 2:1 29 2] [109 0] 2 2
r 152.695906932 _1_ AGT  --- 241 ack 40 [13a 1 7 800] ------- [2:1 1:0 29 1] [108 0] 2 2
r 152.700424635 _1_ AGT  --- 243 ack 40 [13a 1 7 800] ------- [2:1 1:0 29 1] [109 0] 2 2
r 152.730682414 _2_ AGT  --- 208 tcp 1040 [13a 2 21 800] ------- [1:0 2:1 29 2] [110 0] 2 2
r 152.740549141 _2_ AGT  --- 211 tcp 1040 [13a 2 21 800] ------- [1:0 2:1 29 2] [111 0] 2 2
r 152.744301633 _1_ AGT  --- 246 ack 40 [13a 1 7 800] ------- [2:1 1:0 29 1] [110 0] 2 2
r 152.764533279 _2_ AGT  --- 213 tcp 1040 [13a 2 21 800] ------- [1:0 2:1 29 2] [112 0] 2 2
r 152.778382393 _1_ AGT  --- 247 ack 40 [13a 1 7 800] ------- [2:1 1:0 29 1] [111 0] 2 2
r 152.798234040 _2_ AGT  --- 214 tcp 1040 [13a 2 21 800] ------- [1:0 2:1 29 2] [113 0] 2 2
r 152.802026533 _1_ AGT  --- 249 ack 40 [13a 1 7 800] ------- [2:1 1:0 29 1] [112 0] 2 2
r 152.821838180 _2_ AGT  --- 217 tcp 1040 [13a 2 21 800] ------- [1:0 2:1 29 2] [114 0] 2 2
r 152.835917614 _2_ AGT  --- 218 tcp 1040 [13a 2 21 800] ------- [1:0 2:1 29 2] [115 0] 2 2
r 152.837904712 _1_ AGT  --- 251 ack 40 [13a 1 7 800] ------- [2:1 1:0 29 1] [113 0] 2 2
r 152.859713636 _2_ AGT  --- 220 tcp 1040 [13a 2 21 800] ------- [1:0 2:1 29 2] [116 0] 2 2
r 152.861760734 _1_ AGT  --- 253 ack 40 [13a 1 7 800] ------- [2:1 1:0 29 1] [114 0] 2 2
r 152.866760725 _1_ AGT  --- 254 ack 40 [13a 1 7 800] ------- [2:1 1:0 29 1] [115 0] 2 2
r 152.868787926 _1_ AGT  --- 256 ack 40 [13a 1 7 800] ------- [2:1 1:0 29 1] [116 0] 2 2
r 152.918497992 _2_ AGT  --- 223 tcp 1040 [13a 2 21 800] ------- [1:0 2:1 29 2] [117 0] 2 2
r 152.930170634 _2_ AGT  --- 224 tcp 1040 [13a 2 21 800] ------- [1:0 2:1 29 2] [118 0] 2 2
r 152.932057733 _1_ AGT  --- 260 ack 40 [13a 1 7 800] ------- [2:1 1:0 29 1] [117 0] 2 2
r 152.941904313 _2_ AGT  --- 225 tcp 1040 [13a 2 21 800] ------- [1:0 2:1 29 2] [119 0] 2 2
r 152.945796807 _1_ AGT  --- 261 ack 40 [13a 1 7 800] ------- [2:1 1:0 29 1] [118 0] 2 2
r 152.955823387 _2_ AGT  --- 229 tcp 1040 [13a 2 21 800] ------- [1:0 2:1 29 2] [120 0] 2 2
r 152.959535881 _1_ AGT  --- 263 ack 40 [13a 1 7 800] ------- [2:1 1:0 29 1] [119 0] 2 2
r 152.979707532 _2_ AGT  --- 231 tcp 1040 [13a 2 21 800] ------- [1:0 2:1 29 2] [121 0] 2 2
r 152.983460026 _1_ AGT  --- 265 ack 40 [13a 1 7 800] ------- [2:1 1:0 29 1] [120 0] 2 2
r 152.997268805 _1_ AGT  --- 267 ack 40 [13a 1 7 800] ------- [2:1 1:0 29 1] [121 0] 2 2
r 153.017060456 _2_ AGT  --- 233 tcp 1040 [13a 2 21 800] ------- [1:0 2:1 29 2] [122 0] 2 2
r 153.020892951 _1_ AGT  --- 270 ack 40 [13a 1 7 800] ------- [2:1 1:0 29 1] [122 0] 2 2
r 153.040944603 _2_ AGT  --- 234 tcp 1040 [13a 2 21 800] ------- [1:0 2:1 29 2] [123 0] 2 2
r 153.044657097 _1_ AGT  --- 272 ack 40 [13a 1 7 800] ------- [2:1 1:0 29 1] [123 0] 2 2
r 153.054883678 _2_ AGT  --- 237 tcp 1040 [13a 2 21 800] ------- [1:0 2:1 29 2] [124 0] 2 2
r 153.058936173 _1_ AGT  --- 274 ack 40 [13a 1 7 800] ------- [2:1 1:0 29 1] [124 0] 2 2
r 153.078747826 _2_ AGT  --- 238 tcp 1040 [13a 2 21 800] ------- [1:0 2:1 29 2] [125 0] 2 2
r 153.093136952 _1_ AGT  --- 276 ack 40 [13a 1 7 800] ------- [2:1 1:0 29 1] [125 0] 2 2
r 153.113168605 _2_ AGT  --- 240 tcp 1040 [13a 2 21 800] ------- [1:0 2:1 29 2] [126 0] 2 2
r 153.117101101 _1_ AGT  --- 278 ack 40 [13a 1 7 800] ------- [2:1 1:0 29 1] [126 0] 2 2
r 153.127027682 _2_ AGT  --- 242 tcp 1040 [13a 2 21 800] ------- [1:0 2:1 29 2] [127 0] 2 2
r 153.148975942 _2_ AGT  --- 244 tcp 1040 [13a 2 21 800] ------- [1:0 2:1 29 2] [128 0] 2 2
r 153.151023046 _1_ AGT  --- 280 ack 40 [13a 1 7 800] ------- [2:1 1:0 29 1] [127 0] 2 2
r 153.165291829 _1_ AGT  --- 281 ack 40 [13a 1 7 800] ------- [2:1 1:0 29 1] [128 0] 2 2
r 153.176584411 _2_ AGT  --- 245 tcp 1040 [13a 2 21 800] ------- [1:0 2:1 29 2] [129 0] 2 2
r 153.180576907 _1_ AGT  --- 284 ack 40 [13a 1 7 800] ------- [2:1 1:0 29 1] [129 0] 2 2
r 153.200448562 _2_ AGT  --- 248 tcp 1040 [13a 2 21 800] ------- [1:0 2:1 29 2] [130 0] 2 2
r 153.204481058 _1_ AGT  --- 286 ack 40 [13a 1 7 800] ------- [2:1 1:0 29 1] [130 0] 2 2
r 153.224332714 _2_ AGT  --- 250 tcp 1040 [13a 2 21 800] ------- [1:0 2:1 29 2] [131 0] 2 2
r 153.228205210 _1_ AGT  --- 288 ack 40 [13a 1 7 800] ------- [2:1 1:0 29 1] [131 0] 2 2
r 153.277995313 _2_ AGT  --- 252 tcp 1040 [13a 2 21 800] ------- [1:0 2:1 29 2] [132 0] 2 2
r 153.287862040 _2_ AGT  --- 255 tcp 1040 [13a 2 21 800] ------- [1:0 2:1 29 2] [133 0] 2 2
r 153.300074675 _2_ AGT  --- 257 tcp 1040 [13a 2 21 800] ------- [1:0 2:1 29 2] [134 0] 2 2
r 153.310061402 _2_ AGT  --- 258 tcp 1040 [13a 2 21 800] ------- [1:0 2:1 29 2] [135 0] 2 2
r 153.313873899 _1_ AGT  --- 290 ack 40 [13a 1 7 800] ------- [2:1 1:0 29 1] [132 0] 2 2
r 153.333685557 _2_ AGT  --- 259 tcp 1040 [13a 2 21 800] ------- [1:0 2:1 29 2] [136 0] 2 2
r 153.335552663 _1_ AGT  --- 291 ack 40 [13a 1 7 800] ------- [2:1 1:0 29 1] [133 0] 2 2
r 153.366377550 _2_ AGT  --- 262 tcp 1040 [13a 2 21 800] ------- [1:0 2:1 29 2] [137 0] 2 2
r 153.376364276 _2_ AGT  --- 264 tcp 1040 [13a 2 21 800] ------- [1:0 2:1 29 2] [138 0] 2 2
r 153.380236774 _1_ AGT  --- 292 ack 40 [13a 1 7 800] ------- [2:1 1:0 29 1] [134 0] 2 2
r 153.404191717 _1_ AGT  --- 293 ack 40 [13a 1 7 800] ------- [2:1 1:0 29 1] [135 0] 2 2
r 153.423943376 _2_ AGT  --- 266 tcp 1040 [13a 2 21 800] ------- [1:0 2:1 29 2] [139 0] 2 2
r 153.428135875 _1_ AGT  --- 295 ack 40 [13a 1 7 800] ------- [2:1 1:0 29 1] [136 0] 2 2
r 153.438062458 _2_ AGT  --- 268 tcp 1040 [13a 2 21 800] ------- [1:0 2:1 29 2] [140 0] 2 2
r 153.447989184 _2_ AGT  --- 269 tcp 1040 [13a 2 21 800] ------- [1:0 2:1 29 2] [141 0] 2 2
r 153.452141682 _1_ AGT  --- 297 ack 40 [13a 1 7 800] ------- [2:1 1:0 29 1] [137 0] 2 2
r 153.475776630 _1_ AGT  --- 298 ack 40 [13a 1 7 800] ------- [2:1 1:0 29 1] [138 0] 2 2
r 153.485943213 _2_ AGT  --- 271 tcp 1040 [13a 2 21 800] ------- [1:0 2:1 29 2] [142 0] 2 2
r 153.489835712 _1_ AGT  --- 301 ack 40 [13a 1 7 800] ------- [2:1 1:0 29 1] [139 0] 2 2
r 153.509687373 _2_ AGT  --- 273 tcp 1040 [13a 2 21 800] ------- [1:0 2:1 29 2] [143 0] 2 2
r 153.519674099 _2_ AGT  --- 275 tcp 1040 [13a 2 21 800] ------- [1:0 2:1 29 2] [144 0] 2 2
r 153.527440153 _1_ AGT  --- 303 ack 40 [13a 1 7 800] ------- [2:1 1:0 29 1] [140 0] 2 2
r 153.549489080 _2_ AGT  --- 277 tcp 1040 [13a 2 21 800] ------- [1:0 2:1 29 2] [145 0] 2 2
r 153.551356191 _1_ AGT  --- 304 ack 40 [13a 1 7 800] ------- [2:1 1:0 29 1] [141 0] 2 2
r 153.573214888 _1_ AGT  --- 307 ack 40 [13a 1 7 800] ------- [2:1 1:0 29 1] [142 0] 2 2
r 153.575182111 _1_ AGT  --- 309 ack 40 [13a 1 7 800] ------- [2:1 1:0 29 1] [143 0] 2 2
r 153.585088695 _2_ AGT  --- 279 tcp 1040 [13a 2 21 800] ------- [1:0 2:1 29 2] [146 0] 2 2
r 153.598917841 _1_ AGT  --- 310 ack 40 [13a 1 7 800] ------- [2:1 1:0 29 1] [144 0] 2 2
r 153.618829505 _2_ AGT  --- 282 tcp 1040 [13a 2 21 800] ------- [1:0 2:1 29 2] [147 0] 2 2
r 153.628696231 _2_ AGT  --- 283 tcp 1040 [13a 2 21 800] ------- [1:0 2:1 29 2] [148 0] 2 2
r 153.632628731 _1_ AGT  --- 312 ack 40 [13a 1 7 800] ------- [2:1 1:0 29 1] [145 0] 2 2
r 153.642555315 _2_ AGT  --- 285 tcp 1040 [13a 2 21 800] ------- [1:0 2:1 29 2] [149 0] 2 2
r 153.646727816 _1_ AGT  --- 316 ack 40 [13a 1 7 800] ------- [2:1 1:0 29 1] [146 0] 2 2
r 153.668516743 _2_ AGT  --- 287 tcp 1040 [13a 2 21 800] ------- [1:0 2:1 29 2] [150 0] 2 2
r 153.670403856 _1_ AGT  --- 318 ack 40 [13a 1 7 800] ------- [2:1 1:0 29 1] [147 0] 2 2
r 153.690355521 _2_ AGT  --- 289 tcp 1040 [13a 2 21 800] ------- [1:0 2:1 29 2] [151 0] 2 2
r 153.714201054 _2_ AGT  --- 294 tcp 1040 [13a 2 21 800] ------- [1:0 2:1 29 2] [152 0] 2 2
r 153.716088168 _1_ AGT  --- 319 ack 40 [13a 1 7 800] ------- [2:1 1:0 29 1] [148 0] 2 2
r 153.735919834 _2_ AGT  --- 296 tcp 1040 [13a 2 21 800] ------- [1:0 2:1 29 2] [153 0] 2 2
r 153.737786948 _1_ AGT  --- 321 ack 40 [13a 1 7 800] ------- [2:1 1:0 29 1] [149 0] 2 2
r 153.757858614 _2_ AGT  --- 299 tcp 1040 [13a 2 21 800] ------- [1:0 2:1 29 2] [154 0] 2 2
r 153.761731116 _1_ AGT  --- 323 ack 40 [13a 1 7 800] ------- [2:1 1:0 29 1] [150 0] 2 2
r 153.781822782 _2_ AGT  --- 300 tcp 1040 [13a 2 21 800] ------- [1:0 2:1 29 2] [155 0] 2 2
r 153.785635284 _1_ AGT  --- 325 ack 40 [13a 1 7 800] ------- [2:1 1:0 29 1] [151 0] 2 2
r 153.805446951 _2_ AGT  --- 302 tcp 1040 [13a 2 21 800] ------- [1:0 2:1 29 2] [156 0] 2 2
r 153.811686225 _1_ AGT  --- 326 ack 40 [13a 1 7 800] ------- [2:1 1:0 29 1] [152 0] 2 2
r 153.823438775 _1_ AGT  --- 328 ack 40 [13a 1 7 800] ------- [2:1 1:0 29 1] [153 0] 2 2
r 153.833345361 _2_ AGT  --- 305 tcp 1040 [13a 2 21 800] ------- [1:0 2:1 29 2] [157 0] 2 2
r 153.837397863 _1_ AGT  --- 330 ack 40 [13a 1 7 800] ------- [2:1 1:0 29 1] [154 0] 2 2
r 153.857489531 _2_ AGT  --- 306 tcp 1040 [13a 2 21 800] ------- [1:0 2:1 29 2] [158 0] 2 2
r 153.863588804 _1_ AGT  --- 332 ack 40 [13a 1 7 800] ------- [2:1 1:0 29 1] [155 0] 2 2
r 153.875581357 _1_ AGT  --- 334 ack 40 [13a 1 7 800] ------- [2:1 1:0 29 1] [156 0] 2 2
r 153.885567943 _2_ AGT  --- 308 tcp 1040 [13a 2 21 800] ------- [1:0 2:1 29 2] [159 0] 2 2
r 153.921165687 _1_ AGT  --- 337 ack 40 [13a 1 7 800] ------- [2:1 1:0 29 1] [157 0] 2 2
r 153.931252274 _2_ AGT  --- 311 tcp 1040 [13a 2 21 800] ------- [1:0 2:1 29 2] [160 0] 2 2
r 153.941198999 _2_ AGT  --- 313 tcp 1040 [13a 2 21 800] ------- [1:0 2:1 29 2] [161 0] 2 2
r 153.945031502 _1_ AGT  --- 339 ack 40 [13a 1 7 800] ------- [2:1 1:0 29 1] [158 0] 2 2
r 153.954958088 _2_ AGT  --- 314 tcp 1040 [13a 2 21 800] ------- [1:0 2:1 29 2] [162 0] 2 2
r 153.957025207 _1_ AGT  --- 342 ack 40 [13a 1 7 800] ------- [2:1 1:0 29 1] [159 0] 2 2
r 153.976796878 _2_ AGT  --- 315 tcp 1040 [13a 2 21 800] ------- [1:0 2:1 29 2] [163 0] 2 2
r 153.990746040 _1_ AGT  --- 344 ack 40 [13a 1 7 800] ------- [2:1 1:0 29 1] [160 0] 2 2
r 154.000632626 _2_ AGT  --- 317 tcp 1040 [13a 2 21 800] ------- [1:0 2:1 29 2] [164 0] 2 2
r 154.024507670 _2_ AGT  --- 320 tcp 1040 [13a 2 21 800] ------- [1:0 2:1 29 2] [165 0] 2 2
r 154.026354790 _1_ AGT  --- 345 ack 40 [13a 1 7 800] ------- [2:1 1:0 29 1] [161 0] 2 2
r 154.028182027 _1_ AGT  --- 347 ack 40 [13a 1 7 800] ------- [2:1 1:0 29 1] [162 0] 2 2
r 154.048213700 _2_ AGT  --- 322 tcp 1040 [13a 2 21 800] ------- [1:0 2:1 29 2] [166 0] 2 2
r 154.054492971 _1_ AGT  --- 349 ack 40 [13a 1 7 800] ------- [2:1 1:0 29 1] [163 0] 2 2
r 154.084170815 _2_ AGT  --- 324 tcp 1040 [13a 2 21 800] ------- [1:0 2:1 29 2] [167 0] 2 2
r 154.095943438 _2_ AGT  --- 327 tcp 1040 [13a 2 21 800] ------- [1:0 2:1 29 2] [168 0] 2 2
r 154.101662708 _1_ AGT  --- 351 ack 40 [13a 1 7 800] ------- [2:1 1:0 29 1] [164 0] 2 2
r 154.113675271 _1_ AGT  --- 352 ack 40 [13a 1 7 800] ------- [2:1 1:0 29 1] [165 0] 2 2