s 127.937314222 _0_ MAC  --- 0 AODV 106 [0 ffffffff 0 800] ------- [0:255 -1:255 30 0] [0x2 1 1 [2 0] [0 4]] (REQUEST)
s 127.938890762 _1_ MAC  --- 0 AODV 106 [0 ffffffff 1 800] ------- [1:255 -1:255 29 0] [0x2 2 1 [2 0] [0 4]] (REQUEST)
s 127.939809444 _29_ MAC  --- 0 AODV 106 [0 ffffffff 1d 800] ------- [29:255 -1:255 29 0] [0x2 2 1 [2 0] [0 4]] (REQUEST)
s 127.940865874 _11_ MAC  --- 0 AODV 106 [0 ffffffff b 800] ------- [11:255 -1:255 28 0] [0x2 3 1 [2 0] [0 4]] (REQUEST)
s 127.941824116 _3_ MAC  --- 0 AODV 106 [0 ffffffff 3 800] ------- [3:255 -1:255 29 0] [0x2 2 1 [2 0] [0 4]] (REQUEST)
s 127.941824194 _38_ MAC  --- 0 AODV 106 [0 ffffffff 26 800] ------- [38:255 -1:255 29 0] [0x2 2 1 [2 0] [0 4]] (REQUEST)
s 127.943087290 _27_ MAC  --- 0 AODV 106 [0 ffffffff 1b 800] ------- [27:255 -1:255 28 0] [0x2 3 1 [2 0] [0 4]] (REQUEST)
s 127.944065811 _30_ MAC  --- 0 AODV 106 [0 ffffffff 1e 800] ------- [30:255 -1:255 29 0] [0x2 2 1 [2 0] [0 4]] (REQUEST)
s 127.945024160 _14_ MAC  --- 0 AODV 106 [0 ffffffff e 800] ------- [14:255 -1:255 28 0] [0x2 3 1 [2 0] [0 4]] (REQUEST)
s 127.945942781 _21_ MAC  --- 0 AODV 106 [0 ffffffff 15 800] ------- [21:255 -1:255 29 0] [0x2 2 1 [2 0] [0 4]] (REQUEST)
s 127.946881058 _23_ MAC  --- 0 AODV 106 [0 ffffffff 17 800] ------- [23:255 -1:255 29 0] [0x2 2 1 [2 0] [0 4]] (REQUEST)
s 127.947799814 _47_ MAC  --- 0 AODV 106 [0 ffffffff 2f 800] ------- [47:255 -1:255 28 0] [0x2 3 1 [2 0] [0 4]] (REQUEST)
s 127.948713985 _26_ MAC  --- 0 AODV 106 [0 ffffffff 1a 800] ------- [26:255 -1:255 28 0] [0x2 3 1 [2 0] [0 4]] (REQUEST)
s 127.949632332 _31_ MAC  --- 0 AODV 106 [0 ffffffff 1f 800] ------- [31:255 -1:255 28 0] [0x2 3 1 [2 0] [0 4]] (REQUEST)
s 127.949632351 _25_ MAC  --- 0 AODV 106 [0 ffffffff 19 800] ------- [25:255 -1:255 28 0] [0x2 3 1 [2 0] [0 4]] (REQUEST)
s 127.950915106 _46_ MAC  --- 0 AODV 106 [0 ffffffff 2e 800] ------- [46:255 -1:255 27 0] [0x2 4 1 [2 0] [0 4]] (REQUEST)
s 127.950915145 _17_ MAC  --- 0 AODV 106 [0 ffffffff 11 800] ------- [17:255 -1:255 27 0] [0x2 4 1 [2 0] [0 4]] (REQUEST)
s 127.950915329 _4_ MAC  --- 0 AODV 106 [0 ffffffff 4 800] ------- [4:255 -1:255 28 0] [0x2 3 1 [2 0] [0 4]] (REQUEST)
s 127.952178046 _16_ MAC  --- 0 AODV 106 [0 ffffffff 10 800] ------- [16:255 -1:255 27 0] [0x2 4 1 [2 0] [0 4]] (REQUEST)
s 127.952359057 _18_ MAC  --- 0 AODV 106 [0 ffffffff 12 800] ------- [18:255 -1:255 28 0] [0x2 3 1 [2 0] [0 4]] (REQUEST)
s 127.953297466 _44_ MAC  --- 0 AODV 106 [0 ffffffff 2c 800] ------- [44:255 -1:255 28 0] [0x2 3 1 [2 0] [0 4]] (REQUEST)
s 127.953660955 _15_ MAC  --- 0 AODV 106 [0 ffffffff f 800] ------- [15:255 -1:255 27 0] [0x2 4 1 [2 0] [0 4]] (REQUEST)
s 127.954476011 _49_ MAC  --- 0 AODV 106 [0 ffffffff 31 800] ------- [49:255 -1:255 28 0] [0x2 3 1 [2 0] [0 4]] (REQUEST)
s 127.955104569 _61_ MAC  --- 0 AODV 106 [0 ffffffff 3d 800] ------- [61:255 -1:255 26 0] [0x2 5 1 [2 0] [0 4]] (REQUEST)
s 127.955494504 _22_ MAC  --- 0 AODV 106 [0 ffffffff 16 800] ------- [22:255 -1:255 29 0] [0x2 2 1 [2 0] [0 4]] (REQUEST)
s 127.956002569 _64_ MAC  --- 0 AODV 106 [0 ffffffff 40 800] ------- [64:255 -1:255 26 0] [0x2 5 1 [2 0] [0 4]] (REQUEST)
s 127.956592953 _8_ MAC  --- 0 AODV 106 [0 ffffffff 8 800] ------- [8:255 -1:255 29 0] [0x2 2 1 [2 0] [0 4]] (REQUEST)
s 127.956900569 _66_ MAC  --- 0 AODV 106 [0 ffffffff 42 800] ------- [66:255 -1:255 26 0] [0x2 5 1 [2 0] [0 4]] (REQUEST)
s 127.957791544 _48_ MAC  --- 0 AODV 106 [0 ffffffff 30 800] ------- [48:255 -1:255 29 0] [0x2 2 1 [2 0] [0 4]] (REQUEST)
s 127.957918569 _63_ MAC  --- 0 AODV 106 [0 ffffffff 3f 800] ------- [63:255 -1:255 26 0] [0x2 5 1 [2 0] [0 4]] (REQUEST)
s 127.958816569 _72_ MAC  --- 0 AODV 106 [0 ffffffff 48 800] ------- [72:255 -1:255 26 0] [0x2 5 1 [2 0] [0 4]] (REQUEST)
s 127.959195350 _35_ MAC  --- 0 AODV 106 [0 ffffffff 23 800] ------- [35:255 -1:255 28 0] [0x2 3 1 [2 0] [0 4]] (REQUEST)
s 127.959754569 _65_ MAC  --- 0 AODV 106 [0 ffffffff 41 800] ------- [65:255 -1:255 26 0] [0x2 5 1 [2 0] [0 4]] (REQUEST)
s 127.960133720 _40_ MAC  --- 0 AODV 106 [0 ffffffff 28 800] ------- [40:255 -1:255 28 0] [0x2 3 1 [2 0] [0 4]] (REQUEST)
s 127.960692569 _58_ MAC  --- 0 AODV 106 [0 ffffffff 3a 800] ------- [58:255 -1:255 26 0] [0x2 5 1 [2 0] [0 4]] (REQUEST)
s 127.961590569 _53_ MAC  --- 0 AODV 106 [0 ffffffff 35 800] ------- [53:255 -1:255 26 0] [0x2 5 1 [2 0] [0 4]] (REQUEST)
s 127.962528569 _56_ MAC  --- 0 AODV 106 [0 ffffffff 38 800] ------- [56:255 -1:255 26 0] [0x2 5 1 [2 0] [0 4]] (REQUEST)
s 127.963426569 _67_ MAC  --- 0 AODV 106 [0 ffffffff 43 800] ------- [67:255 -1:255 26 0] [0x2 5 1 [2 0] [0 4]] (REQUEST)
s 127.964344569 _57_ MAC  --- 0 AODV 106 [0 ffffffff 39 800] ------- [57:255 -1:255 26 0] [0x2 5 1 [2 0] [0 4]] (REQUEST)
s 127.964902823 _2_ MAC  --- 0 AODV 102 [13a 1d 2 800] ------- [2:255 0:255 30 29] [0x4 1 [2 4] 10.000000] (REPLY)
s 127.965322569 _62_ MAC  --- 0 AODV 106 [0 ffffffff 3e 800] ------- [62:255 -1:255 26 0] [0x2 5 1 [2 0] [0 4]] (REQUEST)
s 127.966400569 _73_ MAC  --- 0 AODV 106 [0 ffffffff 49 800] ------- [73:255 -1:255 26 0] [0x2 5 1 [2 0] [0 4]] (REQUEST)
s 127.967318569 _50_ MAC  --- 0 AODV 106 [0 ffffffff 32 800] ------- [50:255 -1:255 26 0] [0x2 5 1 [2 0] [0 4]] (REQUEST)
s 127.968256569 _52_ MAC  --- 0 AODV 106 [0 ffffffff 34 800] ------- [52:255 -1:255 26 0] [0x2 5 1 [2 0] [0 4]] (REQUEST)
s 127.969194569 _55_ MAC  --- 0 AODV 106 [0 ffffffff 37 800] ------- [55:255 -1:255 26 0] [0x2 5 1 [2 0] [0 4]] (REQUEST)
s 127.970152569 _51_ MAC  --- 0 AODV 106 [0 ffffffff 33 800] ------- [51:255 -1:255 26 0] [0x2 5 1 [2 0] [0 4]] (REQUEST)
s 127.970194886 _29_ MAC  --- 0 AODV 102 [13a 0 1d 800] ------- [2:255 0:255 29 0] [0x4 2 [2 4] 10.000000] (REPLY)
s 127.971070569 _59_ MAC  --- 0 AODV 106 [0 ffffffff 3b 800] ------- [59:255 -1:255 26 0] [0x2 5 1 [2 0] [0 4]] (REQUEST)
s 127.972008569 _71_ MAC  --- 0 AODV 106 [0 ffffffff 47 800] ------- [71:255 -1:255 26 0] [0x2 5 1 [2 0] [0 4]] (REQUEST)
s 127.972966569 _70_ MAC  --- 0 AODV 106 [0 ffffffff 46 800] ------- [70:255 -1:255 26 0] [0x2 5 1 [2 0] [0 4]] (REQUEST)
s 127.973904569 _69_ MAC  --- 0 AODV 106 [0 ffffffff 45 800] ------- [69:255 -1:255 26 0] [0x2 5 1 [2 0] [0 4]] (REQUEST)
s 127.973904569 _60_ MAC  --- 0 AODV 106 [0 ffffffff 3c 800] ------- [60:255 -1:255 26 0] [0x2 5 1 [2 0] [0 4]] (REQUEST)
s 127.973904569 _54_ MAC  --- 0 AODV 106 [0 ffffffff 36 800] ------- [54:255 -1:255 26 0] [0x2 5 1 [2 0] [0 4]] (REQUEST)
s 127.975306569 _68_ MAC  --- 0 AODV 106 [0 ffffffff 44 800] ------- [68:255 -1:255 26 0] [0x2 5 1 [2 0] [0 4]] (REQUEST)
s 127.983300248 _13_ MAC  --- 0 AODV 106 [0 ffffffff d 800] ------- [13:255 -1:255 28 0] [0x2 3 1 [2 0] [0 4]] (REQUEST)
s 127.983300505 _33_ MAC  --- 0 AODV 106 [0 ffffffff 21 800] ------- [33:255 -1:255 29 0] [0x2 2 1 [2 0] [0 4]] (REQUEST)
s 127.984603321 _19_ MAC  --- 0 AODV 106 [0 ffffffff 13 800] ------- [19:255 -1:255 27 0] [0x2 4 1 [2 0] [0 4]] (REQUEST)
s 127.985541991 _32_ MAC  --- 0 AODV 106 [0 ffffffff 20 800] ------- [32:255 -1:255 28 0] [0x2 3 1 [2 0] [0 4]] (REQUEST)
s 127.986480359 _7_ MAC  --- 0 AODV 106 [0 ffffffff 7 800] ------- [7:255 -1:255 28 0] [0x2 3 1 [2 0] [0 4]] (REQUEST)
s 127.986480750 _37_ MAC  --- 0 AODV 106 [0 ffffffff 25 800] ------- [37:255 -1:255 28 0] [0x2 3 1 [2 0] [0 4]] (REQUEST)
s 127.987783584 _43_ MAC  --- 0 AODV 106 [0 ffffffff 2b 800] ------- [43:255 -1:255 29 0] [0x2 2 1 [2 0] [0 4]] (REQUEST)
s 127.987783831 _36_ MAC  --- 0 AODV 106 [0 ffffffff 24 800] ------- [36:255 -1:255 28 0] [0x2 3 1 [2 0] [0 4]] (REQUEST)
s 127.989086196 _45_ MAC  --- 0 AODV 106 [0 ffffffff 2d 800] ------- [45:255 -1:255 28 0] [0x2 3 1 [2 0] [0 4]] (REQUEST)
s 127.990024482 _42_ MAC  --- 0 AODV 106 [0 ffffffff 2a 800] ------- [42:255 -1:255 29 0] [0x2 2 1 [2 0] [0 4]] (REQUEST)
s 127.990024688 _12_ MAC  --- 0 AODV 106 [0 ffffffff c 800] ------- [12:255 -1:255 29 0] [0x2 2 1 [2 0] [0 4]] (REQUEST)
s 127.991347167 _6_ MAC  --- 0 AODV 106 [0 ffffffff 6 800] ------- [6:255 -1:255 29 0] [0x2 2 1 [2 0] [0 4]] (REQUEST)
s 127.991347888 _41_ MAC  --- 0 AODV 106 [0 ffffffff 29 800] ------- [41:255 -1:255 27 0] [0x2 4 1 [2 0] [0 4]] (REQUEST)
s 127.992630281 _5_ MAC  --- 0 AODV 106 [0 ffffffff 5 800] ------- [5:255 -1:255 28 0] [0x2 3 1 [2 0] [0 4]] (REQUEST)
s 127.993568500 _28_ MAC  --- 0 AODV 106 [0 ffffffff 1c 800] ------- [28:255 -1:255 28 0] [0x2 3 1 [2 0] [0 4]] (REQUEST)
s 127.993568563 _9_ MAC  --- 0 AODV 106 [0 ffffffff 9 800] ------- [9:255 -1:255 27 0] [0x2 4 1 [2 0] [0 4]] (REQUEST)
s 127.994891196 _39_ MAC  --- 0 AODV 106 [0 ffffffff 27 800] ------- [39:255 -1:255 27 0] [0x2 4 1 [2 0] [0 4]] (REQUEST)
s 127.995909971 _10_ MAC  --- 0 AODV 106 [0 ffffffff a 800] ------- [10:255 -1:255 27 0] [0x2 4 1 [2 0] [0 4]] (REQUEST)
s 127.996968199 _34_ MAC  --- 0 AODV 106 [0 ffffffff 22 800] ------- [34:255 -1:255 27 0] [0x2 4 1 [2 0] [0 4]] (REQUEST)
s 127.998271139 _20_ MAC  --- 0 AODV 106 [0 ffffffff 14 800] ------- [20:255 -1:255 29 0] [0x2 2 1 [2 0] [0 4]] (REQUEST)
s 127.999229853 _24_ MAC  --- 0 AODV 106 [0 ffffffff 18 800] ------- [24:255 -1:255 29 0] [0x2 2 1 [2 0] [0 4]] (REQUEST)
s 141.888408290 _0_ MAC  --- 0 AODV 90 [0 ffffffff 0 800] ------- [0:255 -1:255 1 0] [0x8 1 [2 0] 0.000000] (ERROR)
s 147.219163408 _0_ MAC  --- 0 AODV 106 [0 ffffffff 0 800] ------- [0:255 -1:255 4 0] [0x2 1 2 [2 5] [0 8]] (REQUEST)
s 147.220879764 _12_ MAC  --- 0 AODV 106 [0 ffffffff c 800] ------- [12:255 -1:255 3 0] [0x2 2 2 [2 5] [0 8]] (REQUEST)
s 147.221878157 _1_ MAC  --- 0 AODV 106 [0 ffffffff 1 800] ------- [1:255 -1:255 3 0] [0x2 2 2 [2 5] [0 8]] (REQUEST)
s 147.222809644 _32_ MAC  --- 0 AODV 106 [0 ffffffff 20 800] ------- [32:255 -1:255 2 0] [0x2 3 2 [2 5] [0 8]] (REQUEST)
s 147.223868142 _38_ MAC  --- 0 AODV 106 [0 ffffffff 26 800] ------- [38:255 -1:255 3 0] [0x2 2 2 [2 5] [0 8]] (REQUEST)
s 147.224806624 _21_ MAC  --- 0 AODV 106 [0 ffffffff 15 800] ------- [21:255 -1:255 3 0] [0x2 2 2 [2 5] [0 8]] (REQUEST)
s 147.225744935 _42_ MAC  --- 0 AODV 106 [0 ffffffff 2a 800] ------- [42:255 -1:255 3 0] [0x2 2 2 [2 5] [0 8]] (REQUEST)
s 147.225745428 _3_ MAC  --- 0 AODV 106 [0 ffffffff 3 800] ------- [3:255 -1:255 2 0] [0x2 3 2 [2 5] [0 8]] (REQUEST)
s 147.227007559 _29_ MAC  --- 0 AODV 106 [0 ffffffff 1d 800] ------- [29:255 -1:255 2 0] [0x2 3 2 [2 5] [0 8]] (REQUEST)
s 147.227008007 _18_ MAC  --- 0 AODV 106 [0 ffffffff 12 800] ------- [18:255 -1:255 2 0] [0x2 3 2 [2 5] [0 8]] (REQUEST)
s 147.228310660 _8_ MAC  --- 0 AODV 106 [0 ffffffff 8 800] ------- [8:255 -1:255 3 0] [0x2 2 2 [2 5] [0 8]] (REQUEST)
s 147.228311473 _9_ MAC  --- 0 AODV 106 [0 ffffffff 9 800] ------- [9:255 -1:255 1 0] [0x2 4 2 [2 5] [0 8]] (REQUEST)
s 147.229574131 _31_ MAC  --- 0 AODV 106 [0 ffffffff 1f 800] ------- [31:255 -1:255 3 0] [0x2 2 2 [2 5] [0 8]] (REQUEST)
s 147.230532280 _36_ MAC  --- 0 AODV 106 [0 ffffffff 24 800] ------- [36:255 -1:255 3 0] [0x2 2 2 [2 5] [0 8]] (REQUEST)
s 147.231450804 _28_ MAC  --- 0 AODV 106 [0 ffffffff 1c 800] ------- [28:255 -1:255 2 0] [0x2 3 2 [2 5] [0 8]] (REQUEST)
s 147.232369457 _34_ MAC  --- 0 AODV 106 [0 ffffffff 22 800] ------- [34:255 -1:255 1 0] [0x2 4 2 [2 5] [0 8]] (REQUEST)
s 147.232369612 _30_ MAC  --- 0 AODV 106 [0 ffffffff 1e 800] ------- [30:255 -1:255 3 0] [0x2 2 2 [2 5] [0 8]] (REQUEST)
s 147.233652596 _11_ MAC  --- 0 AODV 106 [0 ffffffff b 800] ------- [11:255 -1:255 2 0] [0x2 3 2 [2 5] [0 8]] (REQUEST)
s 147.233652970 _24_ MAC  --- 0 AODV 106 [0 ffffffff 18 800] ------- [24:255 -1:255 3 0] [0x2 2 2 [2 5] [0 8]] (REQUEST)
s 147.234935948 _48_ MAC  --- 0 AODV 106 [0 ffffffff 30 800] ------- [48:255 -1:255 3 0] [0x2 2 2 [2 5] [0 8]] (REQUEST)
s 147.234935973 _47_ MAC  --- 0 AODV 106 [0 ffffffff 2f 800] ------- [47:255 -1:255 2 0] [0x2 3 2 [2 5] [0 8]] (REQUEST)
s 147.235854733 _17_ MAC  --- 0 AODV 106 [0 ffffffff 11 800] ------- [17:255 -1:255 1 0] [0x2 4 2 [2 5] [0 8]] (REQUEST)
s 147.236773147 _40_ MAC  --- 0 AODV 106 [0 ffffffff 28 800] ------- [40:255 -1:255 1 0] [0x2 4 2 [2 5] [0 8]] (REQUEST)
s 147.236773532 _41_ MAC  --- 0 AODV 106 [0 ffffffff 29 800] ------- [41:255 -1:255 1 0] [0x2 4 2 [2 5] [0 8]] (REQUEST)
s 147.238056355 _13_ MAC  --- 0 AODV 106 [0 ffffffff d 800] ------- [13:255 -1:255 2 0] [0x2 3 2 [2 5] [0 8]] (REQUEST)
s 147.238056405 _14_ MAC  --- 0 AODV 106 [0 ffffffff e 800] ------- [14:255 -1:255 3 0] [0x2 2 2 [2 5] [0 8]] (REQUEST)
s 147.238056824 _43_ MAC  --- 0 AODV 106 [0 ffffffff 2b 800] ------- [43:255 -1:255 3 0] [0x2 2 2 [2 5] [0 8]] (REQUEST)
s 147.239339692 _49_ MAC  --- 0 AODV 106 [0 ffffffff 31 800] ------- [49:255 -1:255 3 0] [0x2 2 2 [2 5] [0 8]] (REQUEST)
s 147.239719949 _15_ MAC  --- 0 AODV 106 [0 ffffffff f 800] ------- [15:255 -1:255 2 0] [0x2 3 2 [2 5] [0 8]] (REQUEST)
s 147.240418429 _35_ MAC  --- 0 AODV 106 [0 ffffffff 23 800] ------- [35:255 -1:255 1 0] [0x2 4 2 [2 5] [0 8]] (REQUEST)
s 147.241154322 _59_ MAC  --- 0 AODV 106 [0 ffffffff 3b 800] ------- [59:255 -1:255 1 0] [0x2 4 2 [2 5] [0 8]] (REQUEST)
s 147.241801562 _44_ MAC  --- 0 AODV 106 [0 ffffffff 2c 800] ------- [44:255 -1:255 1 0] [0x2 4 2 [2 5] [0 8]] (REQUEST)
s 147.242252955 _37_ MAC  --- 0 AODV 106 [0 ffffffff 25 800] ------- [37:255 -1:255 2 0] [0x2 3 2 [2 5] [0 8]] (REQUEST)
s 147.243231589 _71_ MAC  --- 0 AODV 106 [0 ffffffff 47 800] ------- [71:255 -1:255 1 0] [0x2 4 2 [2 5] [0 8]] (REQUEST)
s 147.243596548 _19_ MAC  --- 0 AODV 106 [0 ffffffff 13 800] ------- [19:255 -1:255 1 0] [0x2 4 2 [2 5] [0 8]] (REQUEST)
s 147.244189589 _57_ MAC  --- 0 AODV 106 [0 ffffffff 39 800] ------- [57:255 -1:255 1 0] [0x2 4 2 [2 5] [0 8]] (REQUEST)
s 147.244940042 _22_ MAC  --- 0 AODV 106 [0 ffffffff 16 800] ------- [22:255 -1:255 3 0] [0x2 2 2 [2 5] [0 8]] (REQUEST)
s 147.245107589 _58_ MAC  --- 0 AODV 106 [0 ffffffff 3a 800] ------- [58:255 -1:255 1 0] [0x2 4 2 [2 5] [0 8]] (REQUEST)
s 147.246025589 _55_ MAC  --- 0 AODV 106 [0 ffffffff 37 800] ------- [55:255 -1:255 1 0] [0x2 4 2 [2 5] [0 8]] (REQUEST)
s 147.246923589 _67_ MAC  --- 0 AODV 106 [0 ffffffff 43 800] ------- [67:255 -1:255 1 0] [0x2 4 2 [2 5] [0 8]] (REQUEST)
s 147.247821589 _64_ MAC  --- 0 AODV 106 [0 ffffffff 40 800] ------- [64:255 -1:255 1 0] [0x2 4 2 [2 5] [0 8]] (REQUEST)
s 147.248779589 _53_ MAC  --- 0 AODV 106 [0 ffffffff 35 800] ------- [53:255 -1:255 1 0] [0x2 4 2 [2 5] [0 8]] (REQUEST)
s 147.249697589 _52_ MAC  --- 0 AODV 106 [0 ffffffff 34 800] ------- [52:255 -1:255 1 0] [0x2 4 2 [2 5] [0 8]] (REQUEST)
s 147.250655589 _61_ MAC  --- 0 AODV 106 [0 ffffffff 3d 800] ------- [61:255 -1:255 1 0] [0x2 4 2 [2 5] [0 8]] (REQUEST)
s 147.250655589 _72_ MAC  --- 0 AODV 106 [0 ffffffff 48 800] ------- [72:255 -1:255 1 0] [0x2 4 2 [2 5] [0 8]] (REQUEST)
s 147.251938301 _4_ MAC  --- 0 AODV 106 [0 ffffffff 4 800] ------- [4:255 -1:255 1 0] [0x2 4 2 [2 5] [0 8]] (REQUEST)
s 147.252856725 _7_ MAC  --- 0 AODV 106 [0 ffffffff 7 800] ------- [7:255 -1:255 2 0] [0x2 3 2 [2 5] [0 8]] (REQUEST)
s 147.253775112 _46_ MAC  --- 0 AODV 106 [0 ffffffff 2e 800] ------- [46:255 -1:255 1 0] [0x2 4 2 [2 5] [0 8]] (REQUEST)
s 147.253775552 _10_ MAC  --- 0 AODV 106 [0 ffffffff a 800] ------- [10:255 -1:255 1 0] [0x2 4 2 [2 5] [0 8]] (REQUEST)
s 147.255079217 _56_ MAC  --- 0 AODV 106 [0 ffffffff 38 800] ------- [56:255 -1:255 1 0] [0x2 4 2 [2 5] [0 8]] (REQUEST)
s 147.255997217 _69_ MAC  --- 0 AODV 106 [0 ffffffff 45 800] ------- [69:255 -1:255 1 0] [0x2 4 2 [2 5] [0 8]] (REQUEST)
s 147.256935217 _62_ MAC  --- 0 AODV 106 [0 ffffffff 3e 800] ------- [62:255 -1:255 1 0] [0x2 4 2 [2 5] [0 8]] (REQUEST)
s 147.257853217 _63_ MAC  --- 0 AODV 106 [0 ffffffff 3f 800] ------- [63:255 -1:255 1 0] [0x2 4 2 [2 5] [0 8]] (REQUEST)
s 147.258771217 _66_ MAC  --- 0 AODV 106 [0 ffffffff 42 800] ------- [66:255 -1:255 1 0] [0x2 4 2 [2 5] [0 8]] (REQUEST)
s 147.259689217 _65_ MAC  --- 0 AODV 106 [0 ffffffff 41 800] ------- [65:255 -1:255 1 0] [0x2 4 2 [2 5] [0 8]] (REQUEST)
s 147.259689217 _60_ MAC  --- 0 AODV 106 [0 ffffffff 3c 800] ------- [60:255 -1:255 1 0] [0x2 4 2 [2 5] [0 8]] (REQUEST)
s 147.260991217 _50_ MAC  --- 0 AODV 106 [0 ffffffff 32 800] ------- [50:255 -1:255 1 0] [0x2 4 2 [2 5] [0 8]] (REQUEST)
s 147.260992151 _27_ MAC  --- 0 AODV 106 [0 ffffffff 1b 800] ------- [27:255 -1:255 2 0] [0x2 3 2 [2 5] [0 8]] (REQUEST)
s 147.260992736 _6_ MAC  --- 0 AODV 106 [0 ffffffff 6 800] ------- [6:255 -1:255 3 0] [0x2 2 2 [2 5] [0 8]] (REQUEST)
s 147.262295093 _5_ MAC  --- 0 AODV 106 [0 ffffffff 5 800] ------- [5:255 -1:255 2 0] [0x2 3 2 [2 5] [0 8]] (REQUEST)
s 147.262296256 _70_ MAC  --- 0 AODV 106 [0 ffffffff 46 800] ------- [70:255 -1:255 1 0] [0x2 4 2 [2 5] [0 8]] (REQUEST)
s 147.262296256 _68_ MAC  --- 0 AODV 106 [0 ffffffff 44 800] ------- [68:255 -1:255 1 0] [0x2 4 2 [2 5] [0 8]] (REQUEST)
s 147.263579747 _45_ MAC  --- 0 AODV 106 [0 ffffffff 2d 800] ------- [45:255 -1:255 3 0] [0x2 2 2 [2 5] [0 8]] (REQUEST)
s 147.263579937 _25_ MAC  --- 0 AODV 106 [0 ffffffff 19 800] ------- [25:255 -1:255 2 0] [0x2 3 2 [2 5] [0 8]] (REQUEST)
s 147.264902215 _26_ MAC  --- 0 AODV 106 [0 ffffffff 1a 800] ------- [26:255 -1:255 1 0] [0x2 4 2 [2 5] [0 8]] (REQUEST)
s 147.264902361 _33_ MAC  --- 0 AODV 106 [0 ffffffff 21 800] ------- [33:255 -1:255 3 0] [0x2 2 2 [2 5] [0 8]] (REQUEST)
s 147.266184659 _20_ MAC  --- 0 AODV 106 [0 ffffffff 14 800] ------- [20:255 -1:255 3 0] [0x2 2 2 [2 5] [0 8]] (REQUEST)
s 147.266185882 _73_ MAC  --- 0 AODV 106 [0 ffffffff 49 800] ------- [73:255 -1:255 1 0] [0x2 4 2 [2 5] [0 8]] (REQUEST)
s 147.267488190 _51_ MAC  --- 0 AODV 106 [0 ffffffff 33 800] ------- [51:255 -1:255 1 0] [0x2 4 2 [2 5] [0 8]] (REQUEST)
s 147.268426190 _54_ MAC  --- 0 AODV 106 [0 ffffffff 36 800] ------- [54:255 -1:255 1 0] [0x2 4 2 [2 5] [0 8]] (REQUEST)
s 147.269709763 _23_ MAC  --- 0 AODV 106 [0 ffffffff 17 800] ------- [23:255 -1:255 3 0] [0x2 2 2 [2 5] [0 8]] (REQUEST)
s 147.500295000 _0_ MAC  --- 0 AODV 106 [0 ffffffff 0 800] ------- [0:255 -1:255 6 0] [0x2 1 3 [2 5] [0 10]] (REQUEST)
s 147.501538088 _12_ MAC  --- 0 AODV 106 [0 ffffffff c 800] ------- [12:255 -1:255 5 0] [0x2 2 3 [2 5] [0 10]] (REQUEST)
s 147.502556496 _33_ MAC  --- 0 AODV 106 [0 ffffffff 21 800] ------- [33:255 -1:255 5 0] [0x2 2 3 [2 5] [0 10]] (REQUEST)
s 147.503475288 _49_ MAC  --- 0 AODV 106 [0 ffffffff 31 800] ------- [49:255 -1:255 5 0] [0x2 2 3 [2 5] [0 10]] (REQUEST)
s 147.504514079 _42_ MAC  --- 0 AODV 106 [0 ffffffff 2a 800] ------- [42:255 -1:255 5 0] [0x2 2 3 [2 5] [0 10]] (REQUEST)
s 147.505532447 _5_ MAC  --- 0 AODV 106 [0 ffffffff 5 800] ------- [5:255 -1:255 4 0] [0x2 3 3 [2 5] [0 10]] (REQUEST)
s 147.506430853 _26_ MAC  --- 0 AODV 106 [0 ffffffff 1a 800] ------- [26:255 -1:255 4 0] [0x2 3 3 [2 5] [0 10]] (REQUEST)
s 147.507349296 _20_ MAC  --- 0 AODV 106 [0 ffffffff 14 800] ------- [20:255 -1:255 5 0] [0x2 2 3 [2 5] [0 10]] (REQUEST)
s 147.508267627 _38_ MAC  --- 0 AODV 106 [0 ffffffff 26 800] ------- [38:255 -1:255 5 0] [0x2 2 3 [2 5] [0 10]] (REQUEST)
s 147.509186124 _32_ MAC  --- 0 AODV 106 [0 ffffffff 20 800] ------- [32:255 -1:255 4 0] [0x2 3 3 [2 5] [0 10]] (REQUEST)
s 147.510124475 _7_ MAC  --- 0 AODV 106 [0 ffffffff 7 800] ------- [7:255 -1:255 4 0] [0x2 3 3 [2 5] [0 10]] (REQUEST)
s 147.511023229 _37_ MAC  --- 0 AODV 106 [0 ffffffff 25 800] ------- [37:255 -1:255 3 0] [0x2 4 3 [2 5] [0 10]] (REQUEST)
s 147.511847968 _18_ MAC  --- 0 AODV 106 [0 ffffffff 12 800] ------- [18:255 -1:255 4 0] [0x2 3 3 [2 5] [0 10]] (REQUEST)
s 147.512121328 _15_ MAC  --- 0 AODV 106 [0 ffffffff f 800] ------- [15:255 -1:255 3 0] [0x2 4 3 [2 5] [0 10]] (REQUEST)
s 147.513040036 _39_ MAC  --- 0 AODV 106 [0 ffffffff 27 800] ------- [39:255 -1:255 3 0] [0x2 4 3 [2 5] [0 10]] (REQUEST)
s 147.513776813 _44_ MAC  --- 0 AODV 106 [0 ffffffff 2c 800] ------- [44:255 -1:255 4 0] [0x2 3 3 [2 5] [0 10]] (REQUEST)
s 147.514158361 _4_ MAC  --- 0 AODV 106 [0 ffffffff 4 800] ------- [4:255 -1:255 3 0] [0x2 4 3 [2 5] [0 10]] (REQUEST)
s 147.515097074 _64_ MAC  --- 0 AODV 106 [0 ffffffff 40 800] ------- [64:255 -1:255 2 0] [0x2 5 3 [2 5] [0 10]] (REQUEST)
s 147.515441744 _3_ MAC  --- 0 AODV 106 [0 ffffffff 3 800] ------- [3:255 -1:255 4 0] [0x2 3 3 [2 5] [0 10]] (REQUEST)
s 147.516225351 _60_ MAC  --- 0 AODV 106 [0 ffffffff 3c 800] ------- [60:255 -1:255 2 0] [0x2 5 3 [2 5] [0 10]] (REQUEST)
s 147.516380001 _47_ MAC  --- 0 AODV 106 [0 ffffffff 2f 800] ------- [47:255 -1:255 4 0] [0x2 3 3 [2 5] [0 10]] (REQUEST)
s 147.517143351 _63_ MAC  --- 0 AODV 106 [0 ffffffff 3f 800] ------- [63:255 -1:255 2 0] [0x2 5 3 [2 5] [0 10]] (REQUEST)
s 147.517338526 _40_ MAC  --- 0 AODV 106 [0 ffffffff 28 800] ------- [40:255 -1:255 3 0] [0x2 4 3 [2 5] [0 10]] (REQUEST)
s 147.518081351 _73_ MAC  --- 0 AODV 106 [0 ffffffff 49 800] ------- [73:255 -1:255 2 0] [0x2 5 3 [2 5] [0 10]] (REQUEST)
s 147.518999351 _52_ MAC  --- 0 AODV 106 [0 ffffffff 34 800] ------- [52:255 -1:255 2 0] [0x2 5 3 [2 5] [0 10]] (REQUEST)
s 147.519175084 _35_ MAC  --- 0 AODV 106 [0 ffffffff 23 800] ------- [35:255 -1:255 4 0] [0x2 3 3 [2 5] [0 10]] (REQUEST)
s 147.519997351 _57_ MAC  --- 0 AODV 106 [0 ffffffff 39 800] ------- [57:255 -1:255 2 0] [0x2 5 3 [2 5] [0 10]] (REQUEST)
s 147.519997351 _67_ MAC  --- 0 AODV 106 [0 ffffffff 43 800] ------- [67:255 -1:255 2 0] [0x2 5 3 [2 5] [0 10]] (REQUEST)
s 147.520193536 _29_ MAC  --- 0 AODV 106 [0 ffffffff 1d 800] ------- [29:255 -1:255 4 0] [0x2 3 3 [2 5] [0 10]] (REQUEST)
s 147.521111662 _11_ MAC  --- 0 AODV 106 [0 ffffffff b 800] ------- [11:255 -1:255 4 0] [0x2 3 3 [2 5] [0 10]] (REQUEST)
s 147.521279351 _66_ MAC  --- 0 AODV 106 [0 ffffffff 42 800] ------- [66:255 -1:255 2 0] [0x2 5 3 [2 5] [0 10]] (REQUEST)
s 147.521279351 _71_ MAC  --- 0 AODV 106 [0 ffffffff 47 800] ------- [71:255 -1:255 2 0] [0x2 5 3 [2 5] [0 10]] (REQUEST)
s 147.522030419 _8_ MAC  --- 0 AODV 106 [0 ffffffff 8 800] ------- [8:255 -1:255 5 0] [0x2 2 3 [2 5] [0 10]] (REQUEST)
s 147.522601351 _65_ MAC  --- 0 AODV 106 [0 ffffffff 41 800] ------- [65:255 -1:255 2 0] [0x2 5 3 [2 5] [0 10]] (REQUEST)
s 147.522601351 _72_ MAC  --- 0 AODV 106 [0 ffffffff 48 800] ------- [72:255 -1:255 2 0] [0x2 5 3 [2 5] [0 10]] (REQUEST)
s 147.523048555 _22_ MAC  --- 0 AODV 106 [0 ffffffff 16 800] ------- [22:255 -1:255 5 0] [0x2 2 3 [2 5] [0 10]] (REQUEST)
s 147.523883351 _55_ MAC  --- 0 AODV 106 [0 ffffffff 37 800] ------- [55:255 -1:255 2 0] [0x2 5 3 [2 5] [0 10]] (REQUEST)
s 147.524107219 _48_ MAC  --- 0 AODV 106 [0 ffffffff 30 800] ------- [48:255 -1:255 5 0] [0x2 2 3 [2 5] [0 10]] (REQUEST)
s 147.524532055 _19_ MAC  --- 0 AODV 106 [0 ffffffff 13 800] ------- [19:255 -1:255 3 0] [0x2 4 3 [2 5] [0 10]] (REQUEST)
s 147.524821351 _68_ MAC  --- 0 AODV 106 [0 ffffffff 44 800] ------- [68:255 -1:255 2 0] [0x2 5 3 [2 5] [0 10]] (REQUEST)
s 147.525739351 _61_ MAC  --- 0 AODV 106 [0 ffffffff 3d 800] ------- [61:255 -1:255 2 0] [0x2 5 3 [2 5] [0 10]] (REQUEST)
s 147.526757351 _54_ MAC  --- 0 AODV 106 [0 ffffffff 36 800] ------- [54:255 -1:255 2 0] [0x2 5 3 [2 5] [0 10]] (REQUEST)
s 147.527695351 _59_ MAC  --- 0 AODV 106 [0 ffffffff 3b 800] ------- [59:255 -1:255 2 0] [0x2 5 3 [2 5] [0 10]] (REQUEST)
s 147.527696170 _16_ MAC  --- 0 AODV 106 [0 ffffffff 10 800] ------- [16:255 -1:255 3 0] [0x2 4 3 [2 5] [0 10]] (REQUEST)
s 147.528979499 _23_ MAC  --- 0 AODV 106 [0 ffffffff 17 800] ------- [23:255 -1:255 5 0] [0x2 2 3 [2 5] [0 10]] (REQUEST)
s 147.529957768 _1_ MAC  --- 0 AODV 106 [0 ffffffff 1 800] ------- [1:255 -1:255 5 0] [0x2 2 3 [2 5] [0 10]] (REQUEST)
s 147.530876573 _28_ MAC  --- 0 AODV 106 [0 ffffffff 1c 800] ------- [28:255 -1:255 4 0] [0x2 3 3 [2 5] [0 10]] (REQUEST)
s 147.531855168 _31_ MAC  --- 0 AODV 106 [0 ffffffff 1f 800] ------- [31:255 -1:255 5 0] [0x2 2 3 [2 5] [0 10]] (REQUEST)
s 147.533137319 _36_ MAC  --- 0 AODV 106 [0 ffffffff 24 800] ------- [36:255 -1:255 5 0] [0x2 2 3 [2 5] [0 10]] (REQUEST)
s 147.533138940 _51_ MAC  --- 0 AODV 106 [0 ffffffff 33 800] ------- [51:255 -1:255 2 0] [0x2 5 3 [2 5] [0 10]] (REQUEST)
s 147.534420969 _53_ MAC  --- 0 AODV 106 [0 ffffffff 35 800] ------- [53:255 -1:255 2 0] [0x2 5 3 [2 5] [0 10]] (REQUEST)
s 147.534421847 _41_ MAC  --- 0 AODV 106 [0 ffffffff 29 800] ------- [41:255 -1:255 3 0] [0x2 4 3 [2 5] [0 10]] (REQUEST)
s 147.534422432 _45_ MAC  --- 0 AODV 106 [0 ffffffff 2d 800] ------- [45:255 -1:255 5 0] [0x2 2 3 [2 5] [0 10]] (REQUEST)
s 147.535704740 _6_ MAC  --- 0 AODV 106 [0 ffffffff 6 800] ------- [6:255 -1:255 5 0] [0x2 2 3 [2 5] [0 10]] (REQUEST)
s 147.535705924 _69_ MAC  --- 0 AODV 106 [0 ffffffff 45 800] ------- [69:255 -1:255 2 0] [0x2 5 3 [2 5] [0 10]] (REQUEST)
s 147.537008859 _27_ MAC  --- 0 AODV 106 [0 ffffffff 1b 800] ------- [27:255 -1:255 4 0] [0x2 3 3 [2 5] [0 10]] (REQUEST)
s 147.537008991 _14_ MAC  --- 0 AODV 106 [0 ffffffff e 800] ------- [14:255 -1:255 5 0] [0x2 2 3 [2 5] [0 10]] (REQUEST)
s 147.537009526 _21_ MAC  --- 0 AODV 106 [0 ffffffff 15 800] ------- [21:255 -1:255 5 0] [0x2 2 3 [2 5] [0 10]] (REQUEST)
s 147.538312640 _46_ MAC  --- 0 AODV 106 [0 ffffffff 2e 800] ------- [46:255 -1:255 4 0] [0x2 3 3 [2 5] [0 10]] (REQUEST)
s 147.538313128 _70_ MAC  --- 0 AODV 106 [0 ffffffff 46 800] ------- [70:255 -1:255 2 0] [0x2 5 3 [2 5] [0 10]] (REQUEST)
s 147.538313128 _62_ MAC  --- 0 AODV 106 [0 ffffffff 3e 800] ------- [62:255 -1:255 2 0] [0x2 5 3 [2 5] [0 10]] (REQUEST)
s 147.538313128 _58_ MAC  --- 0 AODV 106 [0 ffffffff 3a 800] ------- [58:255 -1:255 2 0] [0x2 5 3 [2 5] [0 10]] (REQUEST)
s 147.539616699 _13_ MAC  --- 0 AODV 106 [0 ffffffff d 800] ------- [13:255 -1:255 4 0] [0x2 3 3 [2 5] [0 10]] (REQUEST)
s 147.539616876 _34_ MAC  --- 0 AODV 106 [0 ffffffff 22 800] ------- [34:255 -1:255 3 0] [0x2 4 3 [2 5] [0 10]] (REQUEST)
s 147.540899215 _9_ MAC  --- 0 AODV 106 [0 ffffffff 9 800] ------- [9:255 -1:255 4 0] [0x2 3 3 [2 5] [0 10]] (REQUEST)
s 147.540900229 _30_ MAC  --- 0 AODV 106 [0 ffffffff 1e 800] ------- [30:255 -1:255 5 0] [0x2 2 3 [2 5] [0 10]] (REQUEST)
s 147.542183556 _17_ MAC  --- 0 AODV 106 [0 ffffffff 11 800] ------- [17:255 -1:255 3 0] [0x2 4 3 [2 5] [0 10]] (REQUEST)
s 147.543141827 _10_ MAC  --- 0 AODV 106 [0 ffffffff a 800] ------- [10:255 -1:255 3 0] [0x2 4 3 [2 5] [0 10]] (REQUEST)
s 147.544120626 _25_ MAC  --- 0 AODV 106 [0 ffffffff 19 800] ------- [25:255 -1:255 4 0] [0x2 3 3 [2 5] [0 10]] (REQUEST)
s 147.545199428 _43_ MAC  --- 0 AODV 106 [0 ffffffff 2b 800] ------- [43:255 -1:255 5 0] [0x2 2 3 [2 5] [0 10]] (REQUEST)
s 147.546297834 _24_ MAC  --- 0 AODV 106 [0 ffffffff 18 800] ------- [24:255 -1:255 5 0] [0x2 2 3 [2 5] [0 10]] (REQUEST)
s 147.547581180 _56_ MAC  --- 0 AODV 106 [0 ffffffff 38 800] ------- [56:255 -1:255 2 0] [0x2 5 3 [2 5] [0 10]] (REQUEST)
s 147.548499180 _50_ MAC  --- 0 AODV 106 [0 ffffffff 32 800] ------- [50:255 -1:255 2 0] [0x2 5 3 [2 5] [0 10]] (REQUEST)
s 147.552470115 _2_ MAC  --- 0 AODV 102 [13a 21 2 800] ------- [2:255 0:255 30 33] [0x4 1 [2 8] 10.000000] (REPLY)
s 147.557441566 _33_ MAC  --- 0 AODV 102 [13a 0 21 800] ------- [2:255 0:255 29 0] [0x4 2 [2 8] 10.000000] (REPLY)
s 150.000155000 _1_ MAC  --- 0 AODV 106 [0 ffffffff 1 800] ------- [1:255 -1:255 30 0] [0x2 1 1 [2 0] [1 4]] (REQUEST)
s 150.001276377 _7_ MAC  --- 0 AODV 106 [0 ffffffff 7 800] ------- [7:255 -1:255 29 0] [0x2 2 1 [2 0] [1 4]] (REQUEST)
s 150.002254932 _36_ MAC  --- 0 AODV 106 [0 ffffffff 24 800] ------- [36:255 -1:255 29 0] [0x2 2 1 [2 0] [1 4]] (REQUEST)
s 150.003971436 _32_ MAC  --- 0 AODV 106 [0 ffffffff 20 800] ------- [32:255 -1:255 29 0] [0x2 2 1 [2 0] [1 4]] (REQUEST)
s 150.004969566 _26_ MAC  --- 0 AODV 106 [0 ffffffff 1a 800] ------- [26:255 -1:255 28 0] [0x2 3 1 [2 0] [1 4]] (REQUEST)
s 150.005988111 _34_ MAC  --- 0 AODV 106 [0 ffffffff 22 800] ------- [34:255 -1:255 28 0] [0x2 3 1 [2 0] [1 4]] (REQUEST)
s 150.006926669 _13_ MAC  --- 0 AODV 106 [0 ffffffff d 800] ------- [13:255 -1:255 28 0] [0x2 3 1 [2 0] [1 4]] (REQUEST)
s 150.007865173 _5_ MAC  --- 0 AODV 106 [0 ffffffff 5 800] ------- [5:255 -1:255 29 0] [0x2 2 1 [2 0] [1 4]] (REQUEST)
s 150.008783832 _46_ MAC  --- 0 AODV 106 [0 ffffffff 2e 800] ------- [46:255 -1:255 28 0] [0x2 3 1 [2 0] [1 4]] (REQUEST)
s 150.009722608 _20_ MAC  --- 0 AODV 106 [0 ffffffff 14 800] ------- [20:255 -1:255 29 0] [0x2 2 1 [2 0] [1 4]] (REQUEST)
s 150.009722619 _47_ MAC  --- 0 AODV 106 [0 ffffffff 2f 800] ------- [47:255 -1:255 28 0] [0x2 3 1 [2 0] [1 4]] (REQUEST)
s 150.011005384 _30_ MAC  --- 0 AODV 106 [0 ffffffff 1e 800] ------- [30:255 -1:255 29 0] [0x2 2 1 [2 0] [1 4]] (REQUEST)
s 150.016201978 _22_ MAC  --- 0 AODV 106 [0 ffffffff 16 800] ------- [22:255 -1:255 29 0] [0x2 2 1 [2 0] [1 4]] (REQUEST)
s 150.017120372 _43_ MAC  --- 0 AODV 106 [0 ffffffff 2b 800] ------- [43:255 -1:255 29 0] [0x2 2 1 [2 0] [1 4]] (REQUEST)
s 150.017120758 _6_ MAC  --- 0 AODV 106 [0 ffffffff 6 800] ------- [6:255 -1:255 29 0] [0x2 2 1 [2 0] [1 4]] (REQUEST)
s 150.018403345 _3_ MAC  --- 0 AODV 106 [0 ffffffff 3 800] ------- [3:255 -1:255 28 0] [0x2 3 1 [2 0] [1 4]] (REQUEST)
s 150.018403864 _48_ MAC  --- 0 AODV 106 [0 ffffffff 30 800] ------- [48:255 -1:255 29 0] [0x2 2 1 [2 0] [1 4]] (REQUEST)
s 150.019686491 _21_ MAC  --- 0 AODV 106 [0 ffffffff 15 800] ------- [21:255 -1:255 29 0] [0x2 2 1 [2 0] [1 4]] (REQUEST)
s 150.019687074 _49_ MAC  --- 0 AODV 106 [0 ffffffff 31 800] ------- [49:255 -1:255 28 0] [0x2 3 1 [2 0] [1 4]] (REQUEST)
s 150.020969799 _39_ MAC  --- 0 AODV 106 [0 ffffffff 27 800] ------- [39:255 -1:255 28 0] [0x2 3 1 [2 0] [1 4]] (REQUEST)
s 150.020970255 _28_ MAC  --- 0 AODV 106 [0 ffffffff 1c 800] ------- [28:255 -1:255 29 0] [0x2 2 1 [2 0] [1 4]] (REQUEST)
s 150.022252618 _27_ MAC  --- 0 AODV 106 [0 ffffffff 1b 800] ------- [27:255 -1:255 29 0] [0x2 2 1 [2 0] [1 4]] (REQUEST)
s 150.022252625 _9_ MAC  --- 0 AODV 106 [0 ffffffff 9 800] ------- [9:255 -1:255 28 0] [0x2 3 1 [2 0] [1 4]] (REQUEST)
s 150.023555415 _25_ MAC  --- 0 AODV 106 [0 ffffffff 19 800] ------- [25:255 -1:255 28 0] [0x2 3 1 [2 0] [1 4]] (REQUEST)
s 150.023555774 _19_ MAC  --- 0 AODV 106 [0 ffffffff 13 800] ------- [19:255 -1:255 28 0] [0x2 3 1 [2 0] [1 4]] (REQUEST)